
     Program PWSCF v.6.0 (svn rev. 13079) starts on  7Jul2017 at  0: 0:31 

     This program is part of the open-source Quantum ESPRESSO suite
     for quantum simulation of materials; please cite
         "P. Giannozzi et al., J. Phys.:Condens. Matter 21 395502 (2009);
          URL http://www.quantum-espresso.org", 
     in publications or presentations arising from this work. More details at
     http://www.quantum-espresso.org/quote

     Parallel version (MPI), running on    56 processors
     R & G space division:  proc/nbgrp/npool/nimage =      56
     Waiting for input...
     Reading input from standard input
Warning: card &IONS ignored
Warning: card                ION_DYNAMICS = 'BFGS', ignored
Warning: card  / ignored
Warning: card &CELL ignored
Warning: card 	CELL_DYNAMICS = 'BFGS' ignored
Warning: card 	CELL_DOFREE = 'XYZ' ignored
Warning: card / ignored
     Message from routine read_cards :
     DEPRECATED: no units specified in CELL_PARAMETERS card
Warning: card END_ENGINE_INPUT ignored
Warning: card END ignored

     Current dimensions of program PWSCF are:
     Max number of different atomic species (ntypx) = 10
     Max number of k-points (npk) =  40000
     Max angular momentum in pseudopotentials (lmaxx) =  3

     Subspace diagonalization in iterative solution of the eigenvalue problem:
     a serial algorithm will be used

 
     Parallelization info
     --------------------
     sticks:   dense  smooth     PW     G-vecs:    dense   smooth      PW
     Min         196     196     52                15464    15464    2105
     Max         197     197     54                15467    15467    2110
     Sum       10993   10993   2917               866015   866015  118041
 


     bravais-lattice index     =            0
     lattice parameter (alat)  =      21.7001  a.u.
     unit-cell volume          =    9869.4773 (a.u.)^3
     number of atoms/cell      =           64
     number of atomic types    =            4
     number of electrons       =       256.00
     number of Kohn-Sham states=          154
     kinetic-energy cutoff     =      75.0000  Ry
     charge density cutoff     =     300.0000  Ry
     convergence threshold     =      1.0E-08
     mixing beta               =       0.3000
     number of iterations used =            8  plain     mixing
     Exchange-correlation      = SLA-PZ-NOGX-NOGC ( 1  1  0  0 0 0)

     celldm(1)=  21.700103  celldm(2)=   0.000000  celldm(3)=   0.000000
     celldm(4)=   0.000000  celldm(5)=   0.000000  celldm(6)=   0.000000

     crystal axes: (cart. coord. in units of alat)
               a(1) = (   0.988368   0.000000   0.000000 )  
               a(2) = (   0.000000   0.988657   0.000000 )  
               a(3) = (   0.000000   0.000000   0.988427 )  

     reciprocal axes: (cart. coord. in units 2 pi/alat)
               b(1) = (  1.011769  0.000000  0.000000 )  
               b(2) = (  0.000000  1.011473  0.000000 )  
               b(3) = (  0.000000  0.000000  1.011709 )  


     PseudoPot. # 1 for In read from file:
     /home/mreveil/espresso/pseudo/In.pz-hgh.UPF
     MD5 check sum: 6349c435d2f379c50dfc306885eec88d
     Pseudo is Norm-conserving, Zval =  3.0
     Generated in analytical, separable form
     Using radial grid of 1241 points,  6 beta functions with: 
                l(1) =   0
                l(2) =   0
                l(3) =   0
                l(4) =   1
                l(5) =   1
                l(6) =   2

     PseudoPot. # 2 for Ga read from file:
     /home/mreveil/espresso/pseudo/Ga.pz-hgh.UPF
     MD5 check sum: 6cc93efd947931da6112c38a3d7d5050
     Pseudo is Norm-conserving, Zval =  3.0
     Generated in analytical, separable form
     Using radial grid of 1205 points,  6 beta functions with: 
                l(1) =   0
                l(2) =   0
                l(3) =   0
                l(4) =   1
                l(5) =   1
                l(6) =   2

     PseudoPot. # 3 for As read from file:
     /home/mreveil/espresso/pseudo/As.pz-hgh.UPF
     MD5 check sum: 19ccbb18ac7fdc8ac5652dbe56319a83
     Pseudo is Norm-conserving, Zval =  5.0
     Generated in analytical, separable form
     Using radial grid of 1209 points,  6 beta functions with: 
                l(1) =   0
                l(2) =   0
                l(3) =   0
                l(4) =   1
                l(5) =   1
                l(6) =   2

     PseudoPot. # 4 for Si read from file:
     /home/mreveil/espresso/pseudo/Si.pz-hgh.UPF
     MD5 check sum: 25fb7e4b2a424837d2736a86fcdce72e
     Pseudo is Norm-conserving, Zval =  4.0
     Generated in analytical, separable form
     Using radial grid of 1141 points,  3 beta functions with: 
                l(1) =   0
                l(2) =   0
                l(3) =   1

     atomic species   valence    mass     pseudopotential
        In             3.00   114.81800     In( 1.00)
        Ga             3.00    69.72300     Ga( 1.00)
        As             5.00    74.92160     As( 1.00)
        Si             4.00    28.08550     Si( 1.00)

     No symmetry found



   Cartesian axes

     site n.     atom                  positions (alat units)
         1           Si  tau(   1) = (   0.2016665   0.0000000   0.0000000  )
         2           Si  tau(   2) = (   0.8925387   0.0000000   0.0000000  )
         3           Si  tau(   3) = (   0.1275925   0.2548793   0.0000000  )
         4           Si  tau(   4) = (   0.6376594   0.2548793   0.0000000  )
         5           Si  tau(   5) = (   0.3824718   0.5097586   0.0000000  )
         6           Si  tau(   6) = (   0.8925387   0.5097586   0.0000000  )
         7           Si  tau(   7) = (   0.1275925   0.7646379   0.0000000  )
         8           Si  tau(   8) = (   0.6376594   0.7646379   0.0000000  )
         9           Si  tau(   9) = (   0.0000000   0.1275925   0.1272903  )
        10           Si  tau(  10) = (   0.5100669   0.1275925   0.1272903  )
        11           Si  tau(  11) = (   0.2548793   0.3824718   0.1272903  )
        12           Si  tau(  12) = (   0.7649462   0.3824718   0.1272903  )
        13           Si  tau(  13) = (   0.0000000   0.6373511   0.1272903  )
        14           Si  tau(  14) = (   0.5100669   0.6373511   0.1272903  )
        15           Si  tau(  15) = (   0.2548793   0.8922304   0.1272903  )
        16           Si  tau(  16) = (   0.7649462   0.8922304   0.1272903  )
        17           Si  tau(  17) = (   0.1275925   0.0000000   0.2548854  )
        18           Si  tau(  18) = (   0.6376594   0.0000000   0.2548854  )
        19           Si  tau(  19) = (   0.3824718   0.2548793   0.2548854  )
        20           Si  tau(  20) = (   0.8925387   0.2548793   0.2548854  )
        21           Si  tau(  21) = (   0.1275925   0.5097586   0.2548854  )
        22           Si  tau(  22) = (   0.6376594   0.5097586   0.2548854  )
        23           Si  tau(  23) = (   0.3824718   0.7646379   0.2548854  )
        24           Si  tau(  24) = (   0.8925387   0.7646379   0.2548854  )
        25           Si  tau(  25) = (   0.2551850   0.1275925   0.3824718  )
        26           Si  tau(  26) = (   0.7652518   0.1275925   0.3824718  )
        27           Si  tau(  27) = (   0.0003057   0.3824718   0.3824718  )
        28           Si  tau(  28) = (   0.5103725   0.3824718   0.3824718  )
        29           Si  tau(  29) = (   0.2551850   0.6373511   0.3824718  )
        30           Si  tau(  30) = (   0.7652518   0.6373511   0.3824718  )
        31           Si  tau(  31) = (   0.0003057   0.8922304   0.3824718  )
        32           Si  tau(  32) = (   0.5103725   0.8922304   0.3824718  )
        33           Si  tau(  33) = (   0.3824718   0.0000000   0.5100669  )
        34           Si  tau(  34) = (   0.8925387   0.0000000   0.5100669  )
        35           Si  tau(  35) = (   0.1275925   0.2548793   0.5100669  )
        36           Si  tau(  36) = (   0.6376594   0.2548793   0.5100669  )
        37           Si  tau(  37) = (   0.3824718   0.5097586   0.5100669  )
        38           Si  tau(  38) = (   0.8925387   0.5097586   0.5100669  )
        39           Si  tau(  39) = (   0.1275925   0.7646379   0.5100669  )
        40           Si  tau(  40) = (   0.6376594   0.7646379   0.5100669  )
        41           Si  tau(  41) = (   0.0000000   0.1275925   0.6373572  )
        42           Si  tau(  42) = (   0.5100669   0.1275925   0.6373572  )
        43           Si  tau(  43) = (   0.2548793   0.3824718   0.6373572  )
        44           Si  tau(  44) = (   0.7649462   0.3824718   0.6373572  )
        45           Si  tau(  45) = (   0.0000000   0.6373511   0.6373572  )
        46           Si  tau(  46) = (   0.5100669   0.6373511   0.6373572  )
        47           Si  tau(  47) = (   0.2548793   0.8922304   0.6373572  )
        48           Si  tau(  48) = (   0.7649462   0.8922304   0.6373572  )
        49           Si  tau(  49) = (   0.1275925   0.0000000   0.7649523  )
        50           Si  tau(  50) = (   0.6376594   0.0000000   0.7649523  )
        51           Si  tau(  51) = (   0.3824718   0.2548793   0.7649523  )
        52           Si  tau(  52) = (   0.8925387   0.2548793   0.7649523  )
        53           Si  tau(  53) = (   0.1275925   0.5097586   0.7649523  )
        54           Si  tau(  54) = (   0.6376594   0.5097586   0.7649523  )
        55           Si  tau(  55) = (   0.3824718   0.7646379   0.7649523  )
        56           Si  tau(  56) = (   0.8925387   0.7646379   0.7649523  )
        57           Si  tau(  57) = (   0.2551850   0.1275925   0.8925387  )
        58           Si  tau(  58) = (   0.7652518   0.1275925   0.8925387  )
        59           Si  tau(  59) = (   0.0003057   0.3824718   0.8925387  )
        60           Si  tau(  60) = (   0.5103725   0.3824718   0.8925387  )
        61           Si  tau(  61) = (   0.2551850   0.6373511   0.8925387  )
        62           Si  tau(  62) = (   0.7652518   0.6373511   0.8925387  )
        63           Si  tau(  63) = (   0.0003057   0.8922304   0.8925387  )
        64           Si  tau(  64) = (   0.5103725   0.8922304   0.8925387  )

     number of k points=    36  gaussian smearing, width (Ry)=  0.0100
                       cart. coord. in units 2pi/alat
        k(    1) = (   0.0000000   0.0000000   0.0000000), wk =   0.0312500
        k(    2) = (   0.0000000   0.0000000   0.2529272), wk =   0.0625000
        k(    3) = (   0.0000000   0.0000000  -0.5058544), wk =   0.0312500
        k(    4) = (   0.0000000   0.2528682   0.0000000), wk =   0.0625000
        k(    5) = (   0.0000000   0.2528682   0.2529272), wk =   0.0625000
        k(    6) = (   0.0000000   0.2528682  -0.5058544), wk =   0.0625000
        k(    7) = (   0.0000000  -0.5057364   0.0000000), wk =   0.0312500
        k(    8) = (   0.0000000  -0.5057364   0.2529272), wk =   0.0625000
        k(    9) = (   0.0000000  -0.5057364  -0.5058544), wk =   0.0312500
        k(   10) = (   0.2529423   0.0000000   0.0000000), wk =   0.0625000
        k(   11) = (   0.2529423   0.0000000   0.2529272), wk =   0.0625000
        k(   12) = (   0.2529423   0.0000000  -0.5058544), wk =   0.0625000
        k(   13) = (   0.2529423   0.2528682   0.0000000), wk =   0.0625000
        k(   14) = (   0.2529423   0.2528682   0.2529272), wk =   0.0625000
        k(   15) = (   0.2529423   0.2528682  -0.5058544), wk =   0.0625000
        k(   16) = (   0.2529423  -0.5057364   0.0000000), wk =   0.0625000
        k(   17) = (   0.2529423  -0.5057364   0.2529272), wk =   0.0625000
        k(   18) = (   0.2529423  -0.5057364  -0.5058544), wk =   0.0625000
        k(   19) = (  -0.5058847   0.0000000   0.0000000), wk =   0.0312500
        k(   20) = (  -0.5058847   0.0000000   0.2529272), wk =   0.0625000
        k(   21) = (  -0.5058847   0.0000000  -0.5058544), wk =   0.0312500
        k(   22) = (  -0.5058847   0.2528682   0.0000000), wk =   0.0625000
        k(   23) = (  -0.5058847   0.2528682   0.2529272), wk =   0.0625000
        k(   24) = (  -0.5058847   0.2528682  -0.5058544), wk =   0.0625000
        k(   25) = (  -0.5058847  -0.5057364   0.0000000), wk =   0.0312500
        k(   26) = (  -0.5058847  -0.5057364   0.2529272), wk =   0.0625000
        k(   27) = (  -0.5058847  -0.5057364  -0.5058544), wk =   0.0312500
        k(   28) = (   0.0000000  -0.2528682   0.2529272), wk =   0.0625000
        k(   29) = (  -0.2529423   0.0000000   0.2529272), wk =   0.0625000
        k(   30) = (  -0.2529423   0.2528682   0.0000000), wk =   0.0625000
        k(   31) = (  -0.2529423  -0.2528682   0.2529272), wk =   0.0625000
        k(   32) = (  -0.2529423   0.2528682  -0.2529272), wk =   0.0625000
        k(   33) = (   0.2529423  -0.2528682  -0.2529272), wk =   0.0625000
        k(   34) = (  -0.2529423   0.2528682   0.5058544), wk =   0.0625000
        k(   35) = (  -0.2529423   0.5057364   0.2529272), wk =   0.0625000
        k(   36) = (   0.5058847  -0.2528682   0.2529272), wk =   0.0625000

     Dense  grid:   866015 G-vectors     FFT dimensions: ( 120, 120, 120)

     Estimated max dynamical RAM per process >     217.87Mb

     Estimated total allocated dynamical RAM >   12200.86Mb

     Initial potential from superposition of free atoms

     Starting from uniform charge
     Starting wfc are random

     total cpu time spent up to now is       16.0 secs

     per-process dynamical memory:   259.5 Mb

     Self-consistent Calculation

     iteration #  1     ecut=    75.00 Ry     beta=0.30
     Davidson diagonalization with overlap
     ethr =  1.00E-02,  avg # of iterations =  8.5

     total cpu time spent up to now is      206.8 secs

     total energy              =      15.29988791 Ry
     Harris-Foulkes estimate   =    -621.01565771 Ry
     estimated scf accuracy    <    1338.84039297 Ry

     iteration #  2     ecut=    75.00 Ry     beta=0.30
     Davidson diagonalization with overlap
     ethr =  1.00E-02,  avg # of iterations = 11.1

     total cpu time spent up to now is      451.6 secs

     total energy              =    -418.95852567 Ry
     Harris-Foulkes estimate   =    -936.05623284 Ry
     estimated scf accuracy    <    2240.05631165 Ry

     iteration #  3     ecut=    75.00 Ry     beta=0.30
     Davidson diagonalization with overlap
     ethr =  1.00E-02,  avg # of iterations =  7.5

     total cpu time spent up to now is      596.9 secs

     total energy              =    -530.32940679 Ry
     Harris-Foulkes estimate   =    -609.10998568 Ry
     estimated scf accuracy    <     415.85198649 Ry

     iteration #  4     ecut=    75.00 Ry     beta=0.30
     Davidson diagonalization with overlap
     ethr =  1.00E-02,  avg # of iterations =  4.4

     total cpu time spent up to now is      673.0 secs

     total energy              =    -516.99716831 Ry
     Harris-Foulkes estimate   =    -544.43984415 Ry
     estimated scf accuracy    <     188.83132541 Ry

     iteration #  5     ecut=    75.00 Ry     beta=0.30
     Davidson diagonalization with overlap
     ethr =  1.00E-02,  avg # of iterations =  3.2

     total cpu time spent up to now is      726.3 secs

     total energy              =    -505.51007255 Ry
     Harris-Foulkes estimate   =    -522.15182213 Ry
     estimated scf accuracy    <      96.84396144 Ry

     iteration #  6     ecut=    75.00 Ry     beta=0.30
     Davidson diagonalization with overlap
     ethr =  1.00E-02,  avg # of iterations =  3.3

     total cpu time spent up to now is      782.1 secs

     total energy              =    -504.59964357 Ry
     Harris-Foulkes estimate   =    -511.36410698 Ry
     estimated scf accuracy    <      17.80746364 Ry

     iteration #  7     ecut=    75.00 Ry     beta=0.30
     Davidson diagonalization with overlap
     ethr =  6.96E-03,  avg # of iterations =  3.5

     total cpu time spent up to now is      840.5 secs

     total energy              =    -508.14562319 Ry
     Harris-Foulkes estimate   =    -508.05263272 Ry
     estimated scf accuracy    <       8.63894007 Ry

     iteration #  8     ecut=    75.00 Ry     beta=0.30
     Davidson diagonalization with overlap
     ethr =  3.37E-03,  avg # of iterations =  3.2

     total cpu time spent up to now is      907.3 secs

     total energy              =    -506.21624778 Ry
     Harris-Foulkes estimate   =    -511.46384834 Ry
     estimated scf accuracy    <      61.57940816 Ry

     iteration #  9     ecut=    75.00 Ry     beta=0.30
     Davidson diagonalization with overlap
     ethr =  3.37E-03,  avg # of iterations =  2.1

     total cpu time spent up to now is      951.8 secs

     total energy              =    -504.62718125 Ry
     Harris-Foulkes estimate   =    -507.70859747 Ry
     estimated scf accuracy    <      16.16342091 Ry

     iteration # 10     ecut=    75.00 Ry     beta=0.30
     Davidson diagonalization with overlap
     ethr =  3.37E-03,  avg # of iterations =  3.1

     total cpu time spent up to now is     1002.8 secs

     total energy              =    -506.42036867 Ry
     Harris-Foulkes estimate   =    -506.43206529 Ry
     estimated scf accuracy    <       0.68999368 Ry

     iteration # 11     ecut=    75.00 Ry     beta=0.30
     Davidson diagonalization with overlap
     ethr =  2.70E-04,  avg # of iterations =  6.7

     total cpu time spent up to now is     1090.5 secs

     total energy              =    -506.25140925 Ry
     Harris-Foulkes estimate   =    -506.73991906 Ry
     estimated scf accuracy    <       2.91586442 Ry

     iteration # 12     ecut=    75.00 Ry     beta=0.30
     Davidson diagonalization with overlap
     ethr =  2.70E-04,  avg # of iterations =  3.0

     total cpu time spent up to now is     1145.7 secs

     total energy              =    -506.31276575 Ry
     Harris-Foulkes estimate   =    -506.39247654 Ry
     estimated scf accuracy    <       0.59714711 Ry

     iteration # 13     ecut=    75.00 Ry     beta=0.30
     Davidson diagonalization with overlap
     ethr =  2.33E-04,  avg # of iterations =  2.0

     total cpu time spent up to now is     1188.7 secs

     total energy              =    -506.30371255 Ry
     Harris-Foulkes estimate   =    -506.33169259 Ry
     estimated scf accuracy    <       0.22201117 Ry

     iteration # 14     ecut=    75.00 Ry     beta=0.30
     Davidson diagonalization with overlap
     ethr =  8.67E-05,  avg # of iterations =  3.5

     total cpu time spent up to now is     1240.7 secs

     total energy              =    -506.30554361 Ry
     Harris-Foulkes estimate   =    -506.31392466 Ry
     estimated scf accuracy    <       0.07375695 Ry

     iteration # 15     ecut=    75.00 Ry     beta=0.30
     Davidson diagonalization with overlap
     ethr =  2.88E-05,  avg # of iterations =  7.3

     total cpu time spent up to now is     1307.7 secs

     total energy              =    -506.30474093 Ry
     Harris-Foulkes estimate   =    -506.30913497 Ry
     estimated scf accuracy    <       0.02378637 Ry

     iteration # 16     ecut=    75.00 Ry     beta=0.30
     Davidson diagonalization with overlap
     ethr =  9.29E-06,  avg # of iterations =  5.7

     total cpu time spent up to now is     1371.2 secs

     total energy              =    -506.30678878 Ry
     Harris-Foulkes estimate   =    -506.30718365 Ry
     estimated scf accuracy    <       0.00256683 Ry

     iteration # 17     ecut=    75.00 Ry     beta=0.30
     Davidson diagonalization with overlap
     ethr =  1.00E-06,  avg # of iterations =  6.6

     total cpu time spent up to now is     1434.4 secs

     total energy              =    -506.30697934 Ry
     Harris-Foulkes estimate   =    -506.30705196 Ry
     estimated scf accuracy    <       0.00049163 Ry

     iteration # 18     ecut=    75.00 Ry     beta=0.30
     Davidson diagonalization with overlap
     ethr =  1.92E-07,  avg # of iterations =  2.1

     total cpu time spent up to now is     1479.0 secs

     total energy              =    -506.30700059 Ry
     Harris-Foulkes estimate   =    -506.30701684 Ry
     estimated scf accuracy    <       0.00009254 Ry

     iteration # 19     ecut=    75.00 Ry     beta=0.30
     Davidson diagonalization with overlap
     ethr =  3.61E-08,  avg # of iterations =  3.0

     total cpu time spent up to now is     1531.9 secs

     total energy              =    -506.30701006 Ry
     Harris-Foulkes estimate   =    -506.30701329 Ry
     estimated scf accuracy    <       0.00001304 Ry

     iteration # 20     ecut=    75.00 Ry     beta=0.30
     Davidson diagonalization with overlap
     ethr =  5.09E-09,  avg # of iterations =  2.0

     total cpu time spent up to now is     1580.0 secs

     total energy              =    -506.30701062 Ry
     Harris-Foulkes estimate   =    -506.30701170 Ry
     estimated scf accuracy    <       0.00000440 Ry

     iteration # 21     ecut=    75.00 Ry     beta=0.30
     Davidson diagonalization with overlap
     ethr =  1.72E-09,  avg # of iterations =  2.0

     total cpu time spent up to now is     1626.1 secs

     total energy              =    -506.30701097 Ry
     Harris-Foulkes estimate   =    -506.30701116 Ry
     estimated scf accuracy    <       0.00000086 Ry

     iteration # 22     ecut=    75.00 Ry     beta=0.30
     Davidson diagonalization with overlap
     ethr =  3.37E-10,  avg # of iterations =  2.0

     total cpu time spent up to now is     1673.6 secs

     total energy              =    -506.30701104 Ry
     Harris-Foulkes estimate   =    -506.30701109 Ry
     estimated scf accuracy    <       0.00000025 Ry

     iteration # 23     ecut=    75.00 Ry     beta=0.30
     Davidson diagonalization with overlap
     ethr =  9.76E-11,  avg # of iterations =  2.0

     total cpu time spent up to now is     1719.3 secs

     total energy              =    -506.30701106 Ry
     Harris-Foulkes estimate   =    -506.30701107 Ry
     estimated scf accuracy    <       0.00000004 Ry

     iteration # 24     ecut=    75.00 Ry     beta=0.30
     Davidson diagonalization with overlap
     ethr =  1.74E-11,  avg # of iterations =  2.7

     total cpu time spent up to now is     1770.6 secs

     total energy              =    -506.30701106 Ry
     Harris-Foulkes estimate   =    -506.30701106 Ry
     estimated scf accuracy    <       0.00000001 Ry

     iteration # 25     ecut=    75.00 Ry     beta=0.30
     Davidson diagonalization with overlap
     ethr =  5.42E-12,  avg # of iterations =  2.0

     total cpu time spent up to now is     1817.6 secs

     End of self-consistent calculation

          k = 0.0000 0.0000 0.0000 (108303 PWs)   bands (ev):

    -7.4457  -6.3003  -6.0736  -5.8800  -5.6385  -5.5505  -5.5117  -5.1842
    -5.0722  -4.9572  -4.9254  -4.7090  -4.6472  -4.6272  -4.5524  -4.5059
    -4.4857  -4.3959  -4.3827  -4.2037  -4.1633  -4.0148  -3.9934  -3.3988
    -3.2887  -3.2255  -3.0204  -2.9224  -2.7086  -2.6741  -2.6692  -2.6127
    -2.5783  -2.5536  -2.5332  -2.4307  -2.3774  -2.3651  -2.3583  -2.3299
    -2.2677  -2.0370  -1.8065  -1.7582  -1.4809  -0.9185  -0.9031  -0.7987
    -0.7782  -0.7154  -0.6499  -0.6086  -0.5674  -0.5532  -0.5107  -0.4289
     0.0454   0.1753   0.4447   0.4833   0.7215   0.8218   0.9739   0.9819
     1.0429   1.0440   1.2224   1.2666   1.3214   1.3538   1.3832   1.4167
     1.4634   1.4722   1.4996   1.5445   1.5501   1.5826   1.5959   1.6122
     1.6258   1.7100   1.7239   1.7437   1.7928   1.8091   1.8405   1.9283
     1.9540   2.0089   2.1444   2.2838   2.4170   2.5311   2.8149   2.8215
     2.8443   2.9051   2.9697   3.0094   3.1756   3.1988   3.2062   3.2346
     3.2881   3.3175   3.3340   3.4450   3.4686   3.5435   3.5893   3.6841
     3.6909   3.7291   3.7788   3.7923   3.8318   3.8737   3.8778   3.8961
     3.9444   3.9753   3.9821   4.0418   4.1522   4.4016   4.7889   4.8456
     4.8940   5.0414   5.1121   5.3544   5.4469   5.4852   5.5156   5.6559
     5.6866   5.7879   5.8551   5.8744   5.9509   5.9608   5.9916   6.1024
     6.2664   6.3170   6.3499   6.4151   6.5684   6.5726   6.7518   6.8373
     6.8777   6.9480

          k = 0.0000 0.0000 0.2529 (108307 PWs)   bands (ev):

    -7.4385  -6.2945  -6.1318  -5.9687  -5.5808  -5.4793  -5.3603  -5.2347
    -5.1254  -5.0101  -4.9498  -4.8741  -4.6985  -4.6588  -4.5279  -4.4100
    -4.3571  -4.2707  -4.2166  -4.1303  -4.0616  -3.9541  -3.9475  -3.8670
    -3.4519  -3.2174  -3.1238  -3.0725  -2.9919  -2.9105  -2.6975  -2.6681
    -2.5891  -2.5227  -2.4851  -2.3916  -2.2994  -2.1919  -2.0998  -1.9900
    -1.9274  -1.7932  -1.6998  -1.6331  -1.4496  -1.2667  -1.1666  -1.0935
    -1.0364  -0.9294  -0.8854  -0.7149  -0.5619  -0.3549  -0.1300  -0.0691
    -0.0216   0.1167   0.3210   0.4911   0.6764   0.7846   0.8409   0.9562
     1.0236   1.0598   1.1108   1.1766   1.2366   1.2757   1.3001   1.3220
     1.3773   1.4649   1.5267   1.5669   1.6836   1.7493   1.7772   1.8127
     1.8757   1.9112   1.9368   1.9733   1.9927   2.0337   2.0469   2.0627
     2.0832   2.1343   2.2150   2.2643   2.3629   2.4803   2.6428   2.7007
     2.7520   2.7969   2.8275   2.8767   2.9783   3.0425   3.1268   3.1868
     3.2001   3.2598   3.3241   3.3412   3.3866   3.4431   3.4598   3.5069
     3.5445   3.6227   3.6901   3.7037   3.7514   3.7892   3.8125   3.8633
     3.9023   3.9144   3.9504   4.0255   4.1585   4.3835   4.5591   4.6608
     4.9299   5.1557   5.2681   5.4061   5.6298   5.6834   5.7797   5.8450
     5.9094   5.9883   6.0856   6.1657   6.2027   6.2437   6.2959   6.3464
     6.4009   6.4800   6.5042   6.6203   6.6747   6.7333   6.8565   6.9534
     7.0163   7.0349

          k = 0.0000 0.0000-0.5059 (108248 PWs)   bands (ev):

    -7.4311  -6.2912  -6.1999  -5.9757  -5.5555  -5.3927  -5.3377  -5.3085
    -5.1408  -5.0492  -4.9683  -4.7720  -4.6913  -4.6292  -4.5174  -4.4567
    -4.3746  -4.2736  -4.2690  -4.0612  -3.9355  -3.8143  -3.7585  -3.6634
    -3.6466  -3.5213  -3.4620  -3.3756  -3.1050  -2.9842  -2.6983  -2.6351
    -2.5886  -2.5067  -2.4477  -2.4033  -2.0698  -1.8898  -1.8394  -1.8149
    -1.7066  -1.6065  -1.5546  -1.4985  -1.4655  -1.4107  -1.4038  -1.2868
    -1.2154  -1.1015  -0.9826  -0.8548  -0.8323  -0.6243  -0.0264   0.1000
     0.2339   0.3551   0.4252   0.4484   0.4593   0.6116   0.7746   0.9043
     0.9752   1.0104   1.0246   1.0835   1.1805   1.2090   1.3923   1.4214
     1.4780   1.5173   1.5650   1.6126   1.6521   1.7696   1.8389   1.8666
     1.9057   2.0046   2.0960   2.1416   2.2275   2.2593   2.3467   2.3616
     2.3804   2.4102   2.4258   2.4380   2.4778   2.5700   2.5849   2.6224
     2.6500   2.6759   2.6931   2.7210   2.7358   2.7723   2.7995   2.8489
     2.9210   2.9669   3.0859   3.1747   3.2464   3.2761   3.3954   3.4350
     3.5383   3.5977   3.6139   3.6461   3.6734   3.7353   3.7951   3.8636
     3.8773   3.8930   3.9373   4.1236   4.1823   4.2846   4.2896   4.5903
     4.9076   5.1091   5.4609   5.7274   5.9022   6.0237   6.0836   6.1070
     6.2570   6.3132   6.3277   6.4425   6.4649   6.5552   6.5685   6.6224
     6.6443   6.6841   6.7082   6.7465   6.7526   6.8078   6.8364   6.8772
     6.8944   6.9685

          k = 0.0000 0.2529 0.0000 (108319 PWs)   bands (ev):

    -7.4383  -6.2969  -6.1377  -5.9595  -5.5708  -5.4782  -5.3705  -5.2375
    -5.1261  -5.0144  -4.9495  -4.8718  -4.6969  -4.6495  -4.5297  -4.4110
    -4.3591  -4.2721  -4.2182  -4.1312  -4.0625  -3.9586  -3.9454  -3.8698
    -3.4507  -3.2127  -3.1218  -3.0715  -2.9888  -2.9055  -2.6952  -2.6707
    -2.5889  -2.5271  -2.4886  -2.3964  -2.2986  -2.1919  -2.0994  -1.9898
    -1.9260  -1.7922  -1.6997  -1.6328  -1.4487  -1.2615  -1.1737  -1.0966
    -1.0353  -0.9326  -0.8830  -0.7174  -0.5614  -0.3497  -0.1297  -0.0668
    -0.0224   0.1183   0.3191   0.4921   0.6797   0.7885   0.8426   0.9520
     1.0230   1.0595   1.1109   1.1750   1.2348   1.2724   1.2981   1.3226
     1.3748   1.4640   1.5253   1.5661   1.6816   1.7502   1.7743   1.8098
     1.8769   1.9106   1.9391   1.9777   1.9921   2.0338   2.0466   2.0624
     2.0838   2.1361   2.2163   2.2676   2.3644   2.4763   2.6444   2.7001
     2.7513   2.7956   2.8281   2.8778   2.9783   3.0428   3.1238   3.1863
     3.2023   3.2624   3.3255   3.3400   3.3857   3.4439   3.4612   3.5080
     3.5459   3.6240   3.6907   3.7016   3.7517   3.7867   3.8150   3.8599
     3.9010   3.9114   3.9531   4.0284   4.1610   4.3843   4.5584   4.6603
     4.9309   5.1569   5.2716   5.4011   5.6301   5.6829   5.7761   5.8460
     5.9087   5.9878   6.0857   6.1662   6.2029   6.2446   6.2961   6.3458
     6.4006   6.4800   6.5053   6.6182   6.6739   6.7343   6.8545   6.9520
     7.0177   7.0343

          k = 0.0000 0.2529 0.2529 (108242 PWs)   bands (ev):

    -7.4314  -6.2822  -6.1177  -6.1083  -5.4753  -5.4088  -5.3382  -5.3263
    -5.1460  -4.9878  -4.9596  -4.8634  -4.7796  -4.5956  -4.5236  -4.3691
    -4.2843  -4.2236  -4.1677  -4.0922  -4.0186  -3.9603  -3.8794  -3.7715
    -3.7407  -3.4229  -3.2346  -3.1606  -3.1452  -3.0153  -2.8601  -2.7158
    -2.5591  -2.4159  -2.2688  -2.1768  -2.0963  -2.0909  -1.9731  -1.9145
    -1.8155  -1.7987  -1.6861  -1.6139  -1.5481  -1.4323  -1.2771  -1.2753
    -1.1223  -0.8276  -0.6727  -0.6243  -0.4459  -0.4057  -0.3035  -0.2918
    -0.1507   0.0361   0.2633   0.5097   0.5829   0.8075   0.8260   0.9320
     1.0455   1.0853   1.1465   1.2410   1.2548   1.2988   1.3442   1.3817
     1.4199   1.5253   1.5632   1.6095   1.6680   1.7060   1.7777   1.8473
     1.8556   1.9172   2.0137   2.0292   2.0649   2.1341   2.1372   2.2403
     2.2629   2.3531   2.3731   2.3829   2.4420   2.4777   2.5806   2.5943
     2.6463   2.6910   2.7448   2.7890   2.9095   3.0015   3.0455   3.0515
     3.1229   3.2028   3.2504   3.2622   3.2879   3.3137   3.3711   3.4290
     3.4747   3.5246   3.5682   3.6105   3.6427   3.6990   3.7447   3.8379
     3.8700   3.8811   3.9351   4.0897   4.2260   4.3999   4.5593   4.7991
     4.8221   5.1926   5.3926   5.6861   5.7899   5.8473   5.9240   6.0246
     6.0638   6.1855   6.2564   6.2708   6.2732   6.3905   6.4070   6.4525
     6.5703   6.5838   6.6049   6.6149   6.6194   6.8066   6.8231   6.9118
     6.9903   7.0375

          k = 0.0000 0.2529-0.5059 (108216 PWs)   bands (ev):

    -7.4244  -6.2720  -6.2002  -6.0778  -5.5405  -5.4183  -5.3478  -5.2934
    -5.1287  -4.9787  -4.9135  -4.7338  -4.7023  -4.6233  -4.5603  -4.4105
    -4.3701  -4.1961  -4.1214  -4.0349  -3.9605  -3.9140  -3.7956  -3.7329
    -3.6462  -3.5499  -3.5103  -3.3897  -3.2652  -3.1729  -2.8913  -2.7628
    -2.5154  -2.3525  -2.1732  -2.1464  -1.9860  -1.9431  -1.8655  -1.8070
    -1.7341  -1.7197  -1.6220  -1.5845  -1.5197  -1.4152  -1.2813  -1.1556
    -1.0228  -0.9574  -0.8844  -0.8663  -0.6849  -0.5707  -0.3455  -0.2209
    -0.0350   0.0418   0.2133   0.3101   0.6062   0.7619   0.8447   0.9207
     0.9913   1.0449   1.1600   1.2566   1.2816   1.3474   1.3697   1.4407
     1.4549   1.5433   1.6275   1.6904   1.6993   1.7535   1.8154   1.8607
     1.9518   2.0493   2.0854   2.1628   2.1987   2.2251   2.2501   2.3047
     2.3941   2.4507   2.4676   2.5216   2.5360   2.5928   2.6261   2.6384
     2.6621   2.6932   2.7310   2.7643   2.7893   2.8662   2.8923   2.9233
     2.9515   3.0042   3.0141   3.0763   3.1376   3.2266   3.3007   3.3402
     3.3929   3.4349   3.5015   3.5347   3.5661   3.6311   3.6744   3.7815
     3.8385   3.8899   3.9859   4.0681   4.1531   4.2931   4.5200   4.6930
     5.0263   5.2866   5.5372   5.6590   5.8945   5.9740   6.0968   6.1365
     6.2362   6.2961   6.3690   6.4393   6.5216   6.5409   6.6005   6.6275
     6.6750   6.6981   6.7145   6.7623   6.8163   6.8716   6.9290   6.9795
     6.9898   7.0161

          k = 0.0000-0.5057 0.0000 (108244 PWs)   bands (ev):

    -7.4307  -6.2998  -6.2015  -5.9638  -5.5450  -5.3839  -5.3492  -5.3146
    -5.1506  -5.0484  -4.9617  -4.7720  -4.6868  -4.6291  -4.5180  -4.4620
    -4.3761  -4.2773  -4.2688  -4.0622  -3.9360  -3.8178  -3.7574  -3.6613
    -3.6450  -3.5233  -3.4652  -3.3740  -3.0956  -2.9739  -2.6945  -2.6375
    -2.5878  -2.5138  -2.4508  -2.4079  -2.0674  -1.8887  -1.8418  -1.8112
    -1.7074  -1.6052  -1.5558  -1.4986  -1.4647  -1.4147  -1.4073  -1.2862
    -1.2117  -1.1012  -0.9823  -0.8588  -0.8356  -0.6245  -0.0212   0.1085
     0.2377   0.3552   0.4266   0.4507   0.4599   0.6114   0.7748   0.9009
     0.9716   1.0127   1.0224   1.0821   1.1783   1.2100   1.3857   1.4209
     1.4775   1.5119   1.5638   1.6071   1.6480   1.7690   1.8398   1.8651
     1.9087   2.0085   2.0903   2.1443   2.2302   2.2630   2.3459   2.3624
     2.3797   2.4101   2.4275   2.4400   2.4799   2.5681   2.5853   2.6184
     2.6510   2.6772   2.6923   2.7207   2.7346   2.7750   2.8011   2.8489
     2.9200   2.9680   3.0880   3.1768   3.2466   3.2807   3.3967   3.4391
     3.5425   3.5964   3.6111   3.6431   3.6712   3.7356   3.7953   3.8583
     3.8717   3.8920   3.9416   4.1279   4.1894   4.2790   4.2890   4.5939
     4.9099   5.1121   5.4653   5.7225   5.9036   6.0230   6.0842   6.0996
     6.2508   6.3057   6.3251   6.4460   6.4661   6.5529   6.5644   6.6212
     6.6424   6.6817   6.7056   6.7436   6.7523   6.8086   6.8379   6.8776
     6.8939   6.9672

          k = 0.0000-0.5057 0.2529 (108220 PWs)   bands (ev):

    -7.4242  -6.2789  -6.2009  -6.0689  -5.5424  -5.4132  -5.3444  -5.2980
    -5.1363  -4.9720  -4.9080  -4.7363  -4.7037  -4.6255  -4.5650  -4.4139
    -4.3696  -4.1939  -4.1223  -4.0337  -3.9621  -3.9129  -3.7957  -3.7305
    -3.6443  -3.5522  -3.5089  -3.3886  -3.2660  -3.1739  -2.8904  -2.7618
    -2.5129  -2.3533  -2.1721  -2.1473  -1.9872  -1.9431  -1.8654  -1.8064
    -1.7349  -1.7184  -1.6246  -1.5828  -1.5206  -1.4157  -1.2834  -1.1559
    -1.0208  -0.9587  -0.8833  -0.8672  -0.6894  -0.5716  -0.3415  -0.2203
    -0.0308   0.0449   0.2108   0.3111   0.6076   0.7630   0.8498   0.9192
     0.9897   1.0450   1.1611   1.2507   1.2791   1.3433   1.3688   1.4412
     1.4529   1.5397   1.6300   1.6865   1.6965   1.7543   1.8176   1.8606
     1.9505   2.0513   2.0857   2.1636   2.2031   2.2272   2.2526   2.3047
     2.3945   2.4485   2.4688   2.5202   2.5327   2.5929   2.6262   2.6384
     2.6615   2.6927   2.7293   2.7648   2.7891   2.8643   2.8939   2.9233
     2.9540   3.0060   3.0157   3.0784   3.1421   3.2284   3.2993   3.3404
     3.3925   3.4325   3.5010   3.5312   3.5644   3.6336   3.6759   3.7812
     3.8356   3.8880   3.9875   4.0703   4.1560   4.2912   4.5209   4.6934
     5.0277   5.2884   5.5426   5.6599   5.8928   5.9756   6.0905   6.1253
     6.2349   6.2948   6.3700   6.4384   6.5162   6.5418   6.6016   6.6255
     6.6736   6.7000   6.7138   6.7595   6.8164   6.8720   6.9276   6.9784
     6.9909   7.0153

          k = 0.0000-0.5057-0.5059 (108204 PWs)   bands (ev):

    -7.4175  -6.2528  -6.2260  -6.1076  -5.6751  -5.3293  -5.3242  -5.2590
    -5.1607  -5.0024  -4.7984  -4.7307  -4.6744  -4.5438  -4.4957  -4.4468
    -4.2878  -4.2387  -4.1251  -3.9957  -3.9906  -3.8779  -3.7940  -3.7523
    -3.7072  -3.6722  -3.5985  -3.5510  -3.1700  -3.1389  -3.0898  -2.8502
    -2.4335  -2.2425  -2.1307  -2.1090  -2.0553  -2.0225  -1.8319  -1.8163
    -1.7502  -1.6633  -1.6354  -1.4492  -1.4393  -1.1734  -1.1499  -1.1043
    -0.9984  -0.9482  -0.8563  -0.8016  -0.6884  -0.5711  -0.4149  -0.3822
    -0.3328  -0.1541  -0.0844   0.1557   0.5962   0.7978   0.9025   0.9748
     1.0329   1.1644   1.2088   1.2228   1.2836   1.3743   1.4400   1.5185
     1.5293   1.6568   1.6585   1.7092   1.8053   1.8303   1.9106   1.9543
     1.9833   2.0145   2.0532   2.1162   2.2054   2.2346   2.2601   2.3134
     2.3160   2.4043   2.4063   2.4655   2.5130   2.5208   2.5304   2.6317
     2.6385   2.6459   2.8286   2.8510   2.9456   2.9684   3.0012   3.0114
     3.0755   3.0887   3.1061   3.1285   3.1754   3.1978   3.2143   3.2379
     3.2672   3.3502   3.4233   3.4294   3.4821   3.4898   3.5277   3.6340
     3.6803   3.7563   3.7701   3.9093   4.2794   4.5173   4.7031   4.7464
     5.1495   5.3431   5.4499   5.7266   5.9398   6.0685   6.1303   6.1570
     6.2558   6.2811   6.3273   6.4616   6.5425   6.5573   6.6209   6.6450
     6.6618   6.7071   6.7203   6.7434   6.8864   6.9521   6.9572   6.9673
     7.0005   7.0518

          k = 0.2529 0.0000 0.0000 (108303 PWs)   bands (ev):

    -7.4407  -6.3366  -6.0515  -5.8565  -5.6234  -5.6143  -5.4571  -5.2017
    -5.1447  -5.0354  -4.9044  -4.8451  -4.6385  -4.5778  -4.5538  -4.4741
    -4.3475  -4.3179  -4.2834  -4.1119  -4.0527  -3.9358  -3.9284  -3.5417
    -3.4167  -3.3495  -3.1920  -3.1309  -3.0084  -2.9347  -2.8012  -2.6642
    -2.6585  -2.6036  -2.3970  -2.3916  -2.2590  -2.1888  -2.0295  -1.9793
    -1.9273  -1.7509  -1.6975  -1.6828  -1.4315  -1.2842  -1.2123  -1.0909
    -1.0482  -0.8935  -0.7762  -0.6637  -0.4918  -0.3532  -0.1893  -0.1103
    -0.0200   0.1132   0.3156   0.4050   0.6644   0.6832   0.8223   0.8939
     0.9894   0.9934   1.1334   1.1457   1.2248   1.2292   1.3244   1.3823
     1.4807   1.4994   1.5760   1.6084   1.6962   1.7981   1.8084   1.8317
     1.8661   1.9270   1.9393   1.9661   1.9964   2.0058   2.0546   2.0646
     2.1205   2.1796   2.2132   2.2488   2.4439   2.5454   2.6384   2.6863
     2.7135   2.7602   2.8056   2.8478   2.9953   3.1203   3.1499   3.1842
     3.2614   3.2732   3.3109   3.3649   3.3842   3.4026   3.4529   3.4839
     3.5137   3.5401   3.5827   3.6718   3.7104   3.7776   3.7840   3.8389
     3.9113   3.9320   3.9633   4.0263   4.2391   4.3477   4.4216   4.6743
     4.9724   5.1315   5.3522   5.3685   5.5946   5.7046   5.7495   5.8122
     5.9743   5.9812   6.1272   6.1621   6.1955   6.2481   6.2796   6.3787
     6.3988   6.5031   6.5418   6.6217   6.6985   6.7676   6.8540   6.9146
     6.9911   6.9948

          k = 0.2529 0.0000 0.2529 (108246 PWs)   bands (ev):

    -7.4339  -6.3251  -6.1055  -5.9456  -5.6072  -5.5364  -5.3699  -5.2725
    -5.1690  -4.9846  -4.9073  -4.8656  -4.6791  -4.5743  -4.5359  -4.3743
    -4.3435  -4.2663  -4.2072  -4.0804  -3.9498  -3.9087  -3.8625  -3.7838
    -3.5429  -3.3989  -3.3034  -3.1947  -3.1108  -3.0238  -2.9685  -2.8847
    -2.5387  -2.4313  -2.4005  -2.2696  -2.1325  -1.9725  -1.9318  -1.8646
    -1.7788  -1.7344  -1.6796  -1.5804  -1.4446  -1.3521  -1.2736  -1.1535
    -1.0620  -0.9198  -0.8615  -0.7714  -0.6363  -0.3914  -0.2346  -0.1853
    -0.0769   0.0955   0.3517   0.4331   0.5514   0.7513   0.8104   0.9193
     0.9338   1.0426   1.1131   1.1482   1.2401   1.3383   1.3960   1.3999
     1.4630   1.5285   1.5873   1.6694   1.7067   1.7670   1.8383   1.8961
     1.9127   1.9380   1.9742   2.0259   2.0911   2.1051   2.1658   2.1977
     2.2347   2.3148   2.3462   2.3697   2.4402   2.4936   2.5744   2.6257
     2.6651   2.6949   2.7529   2.8275   2.8986   2.9579   2.9790   3.0621
     3.1079   3.1597   3.2123   3.2849   3.3408   3.3701   3.4279   3.4605
     3.4971   3.5211   3.5916   3.6354   3.6935   3.7484   3.7774   3.7883
     3.8334   3.8664   3.9311   4.0261   4.1702   4.2943   4.4778   4.7151
     4.9279   5.2256   5.3166   5.4344   5.6985   5.8680   5.9098   5.9776
     6.0243   6.1365   6.2390   6.2729   6.3108   6.3932   6.4794   6.5167
     6.5602   6.6007   6.6648   6.7600   6.8005   6.8693   6.9120   6.9387
     7.0161   7.0522

          k = 0.2529 0.0000-0.5059 (108224 PWs)   bands (ev):

    -7.4269  -6.2957  -6.2058  -5.9461  -5.5790  -5.5390  -5.3861  -5.2894
    -5.0313  -5.0003  -4.9713  -4.7786  -4.6979  -4.6117  -4.4794  -4.4137
    -4.3431  -4.2860  -4.1041  -3.9805  -3.9400  -3.8694  -3.7676  -3.6954
    -3.6054  -3.5528  -3.4991  -3.3350  -3.2876  -3.1740  -3.0251  -2.8783
    -2.5879  -2.3626  -2.2203  -2.0754  -1.9716  -1.9280  -1.8879  -1.7877
    -1.7043  -1.6758  -1.6043  -1.5336  -1.4542  -1.3889  -1.3154  -1.2512
    -1.0984  -0.9883  -0.9515  -0.7488  -0.7106  -0.5267  -0.4182  -0.2437
     0.0051   0.1834   0.2719   0.3790   0.5631   0.7114   0.8387   0.8992
     0.9847   1.0971   1.1412   1.1876   1.2525   1.3152   1.3929   1.4519
     1.5072   1.5380   1.6391   1.6675   1.7111   1.7640   1.8159   1.8781
     1.9135   1.9726   2.0626   2.1097   2.1762   2.2493   2.2713   2.3059
     2.3814   2.4322   2.4661   2.4910   2.5382   2.5956   2.6101   2.6590
     2.6943   2.7122   2.7451   2.7699   2.7828   2.8414   2.8620   2.9026
     2.9535   3.0009   3.0672   3.0946   3.1403   3.1884   3.2422   3.3169
     3.4015   3.4519   3.5151   3.5590   3.6234   3.6612   3.7176   3.8122
     3.8409   3.8950   4.0117   4.0691   4.2094   4.4128   4.4836   4.6851
     4.9339   5.2594   5.4750   5.8057   5.8962   5.9719   6.0775   6.1657
     6.2563   6.3222   6.3583   6.4130   6.5094   6.5369   6.5818   6.6218
     6.6428   6.6834   6.7056   6.7382   6.7895   6.8134   6.8789   6.8930
     6.9575   6.9889

          k = 0.2529 0.2529 0.0000 (108238 PWs)   bands (ev):

    -7.4337  -6.3263  -6.1130  -5.9359  -5.6056  -5.5330  -5.3735  -5.2748
    -5.1712  -4.9772  -4.9088  -4.8625  -4.6795  -4.5809  -4.5404  -4.3727
    -4.3425  -4.2684  -4.2051  -4.0802  -3.9508  -3.9090  -3.8662  -3.7828
    -3.5405  -3.3975  -3.3017  -3.1944  -3.1126  -3.0226  -2.9646  -2.8890
    -2.5379  -2.4297  -2.3963  -2.2712  -2.1354  -1.9709  -1.9307  -1.8636
    -1.7792  -1.7317  -1.6775  -1.5831  -1.4472  -1.3541  -1.2768  -1.1557
    -1.0661  -0.9141  -0.8581  -0.7725  -0.6421  -0.3909  -0.2307  -0.1842
    -0.0802   0.0947   0.3521   0.4359   0.5522   0.7522   0.8088   0.9196
     0.9335   1.0438   1.1117   1.1464   1.2395   1.3406   1.3958   1.4007
     1.4659   1.5293   1.5893   1.6727   1.7038   1.7673   1.8394   1.8970
     1.9155   1.9396   1.9730   2.0252   2.0883   2.1050   2.1662   2.1973
     2.2347   2.3141   2.3469   2.3701   2.4383   2.4923   2.5721   2.6225
     2.6644   2.6964   2.7549   2.8275   2.8982   2.9567   2.9780   3.0583
     3.1081   3.1583   3.2090   3.2804   3.3400   3.3690   3.4306   3.4624
     3.4995   3.5213   3.5914   3.6346   3.6932   3.7471   3.7773   3.7919
     3.8308   3.8695   3.9289   4.0260   4.1732   4.2922   4.4785   4.7250
     4.9267   5.2265   5.3143   5.4349   5.6991   5.8683   5.9119   5.9783
     6.0287   6.1349   6.2392   6.2745   6.3136   6.3940   6.4798   6.5154
     6.5587   6.5991   6.6646   6.7582   6.7982   6.8691   6.9125   6.9374
     7.0159   7.0515

          k = 0.2529 0.2529 0.2529 (108297 PWs)   bands (ev):

    -7.4272  -6.3113  -6.0898  -6.0776  -5.5720  -5.4661  -5.4058  -5.3135
    -5.1759  -4.9892  -4.8071  -4.7608  -4.7535  -4.5796  -4.5197  -4.3250
    -4.3170  -4.1482  -4.1357  -4.0830  -4.0426  -3.8397  -3.8192  -3.7828
    -3.7094  -3.5141  -3.3398  -3.2515  -3.2332  -3.1894  -3.1682  -2.9826
    -2.3757  -2.2793  -2.2510  -2.1113  -1.9438  -1.9281  -1.8629  -1.8352
    -1.7449  -1.6993  -1.6577  -1.5678  -1.5293  -1.4998  -1.2951  -1.1735
    -0.9836  -0.9029  -0.8978  -0.7956  -0.7479  -0.5963  -0.3064  -0.1659
    -0.0228   0.0654   0.1923   0.4195   0.7434   0.7777   0.7826   0.8871
     1.0319   1.1111   1.2151   1.2349   1.2620   1.2726   1.3449   1.3463
     1.5011   1.5677   1.6020   1.6725   1.7075   1.7220   1.8107   1.8769
     1.9029   1.9548   2.0057   2.0430   2.0821   2.1352   2.1484   2.2282
     2.2720   2.3369   2.3457   2.4419   2.4629   2.5038   2.5542   2.6394
     2.6608   2.7291   2.7943   2.7954   2.8689   2.8899   2.9788   3.0445
     3.0866   3.1235   3.1502   3.2106   3.2345   3.2930   3.2955   3.3431
     3.4186   3.5432   3.5484   3.5845   3.6519   3.6835   3.7849   3.8081
     3.9960   4.0091   4.1469   4.1880   4.1985   4.3681   4.5194   4.6772
     4.7778   5.2286   5.2335   5.5186   5.8066   5.8141   5.8646   6.0133
     6.1714   6.3037   6.3077   6.3417   6.3758   6.4418   6.4915   6.5314
     6.5636   6.5732   6.6245   6.6255   6.7466   6.7811   6.7899   6.8815
     6.9169   6.9438

          k = 0.2529 0.2529-0.5059 (108280 PWs)   bands (ev):

    -7.4206  -6.2831  -6.1929  -6.0466  -5.5536  -5.5151  -5.4807  -5.3234
    -5.0531  -4.9218  -4.8561  -4.7369  -4.6561  -4.5398  -4.5082  -4.3792
    -4.2152  -4.1722  -4.1264  -4.0476  -3.9597  -3.8682  -3.8303  -3.7732
    -3.6263  -3.5855  -3.5113  -3.4703  -3.4074  -3.2379  -3.2044  -3.0815
    -2.3005  -2.1973  -2.1066  -1.9386  -1.8909  -1.8584  -1.8133  -1.7508
    -1.7238  -1.6992  -1.6401  -1.5228  -1.4616  -1.3837  -1.3049  -1.2893
    -1.1131  -1.0798  -0.9261  -0.8782  -0.5872  -0.4701  -0.4140  -0.3959
    -0.2830   0.0190   0.2872   0.5117   0.7017   0.7468   0.8449   0.8992
     1.0032   1.0753   1.1600   1.2044   1.2772   1.3610   1.4195   1.4883
     1.5382   1.5705   1.6378   1.6556   1.6832   1.7442   1.8077   1.9003
     1.9360   1.9794   2.0563   2.0922   2.1843   2.2153   2.2292   2.2746
     2.2964   2.3509   2.3875   2.4286   2.4617   2.5118   2.5371   2.5894
     2.6367   2.6692   2.6915   2.7719   2.7974   2.8232   2.9285   2.9867
     3.0089   3.0755   3.1547   3.1968   3.2200   3.2725   3.3013   3.3346
     3.4201   3.4554   3.5173   3.5528   3.5819   3.6801   3.8315   3.8708
     3.9486   4.0875   4.1231   4.1961   4.2490   4.3685   4.4129   4.5861
     4.9884   5.2523   5.4142   5.5745   5.7335   5.8230   5.9726   6.0657
     6.1271   6.1918   6.2770   6.3252   6.4110   6.4570   6.4874   6.5538
     6.6011   6.6283   6.6747   6.7161   6.7310   6.7834   6.8287   6.8628
     6.9075   6.9252

          k = 0.2529-0.5057 0.0000 (108220 PWs)   bands (ev):

    -7.4265  -6.2988  -6.2128  -5.9337  -5.5850  -5.5321  -5.3795  -5.2934
    -5.0326  -4.9986  -4.9681  -4.7812  -4.7024  -4.6139  -4.4880  -4.4131
    -4.3417  -4.2856  -4.1047  -3.9812  -3.9425  -3.8712  -3.7655  -3.6934
    -3.6051  -3.5502  -3.4967  -3.3366  -3.2862  -3.1756  -3.0184  -2.8793
    -2.5830  -2.3659  -2.2173  -2.0736  -1.9700  -1.9296  -1.8908  -1.7926
    -1.7024  -1.6766  -1.6025  -1.5349  -1.4534  -1.3876  -1.3172  -1.2535
    -1.0986  -0.9922  -0.9502  -0.7499  -0.7128  -0.5252  -0.4167  -0.2461
     0.0047   0.1878   0.2701   0.3820   0.5673   0.7129   0.8395   0.9021
     0.9834   1.0969   1.1426   1.1875   1.2507   1.3125   1.3914   1.4528
     1.5058   1.5386   1.6377   1.6677   1.7079   1.7611   1.8123   1.8799
     1.9154   1.9684   2.0670   2.1121   2.1760   2.2533   2.2714   2.3043
     2.3820   2.4283   2.4657   2.4916   2.5396   2.5925   2.6103   2.6598
     2.6931   2.7109   2.7466   2.7662   2.7835   2.8426   2.8602   2.9042
     2.9542   3.0012   3.0652   3.0977   3.1411   3.1913   3.2419   3.3152
     3.4025   3.4500   3.5166   3.5585   3.6206   3.6597   3.7176   3.8072
     3.8440   3.8998   4.0133   4.0700   4.2109   4.4167   4.4810   4.6852
     4.9334   5.2602   5.4767   5.8026   5.8922   5.9749   6.0725   6.1659
     6.2546   6.3229   6.3608   6.4157   6.5103   6.5342   6.5771   6.6224
     6.6450   6.6818   6.7049   6.7400   6.7890   6.8127   6.8791   6.8922
     6.9555   6.9903

          k = 0.2529-0.5057 0.2529 (108276 PWs)   bands (ev):

    -7.4204  -6.2843  -6.2004  -6.0366  -5.5596  -5.5159  -5.4770  -5.3137
    -5.0541  -4.9245  -4.8599  -4.7400  -4.6543  -4.5380  -4.5108  -4.3820
    -4.2159  -4.1722  -4.1261  -4.0461  -3.9601  -3.8705  -3.8287  -3.7703
    -3.6263  -3.5841  -3.5094  -3.4693  -3.4096  -3.2401  -3.2051  -3.0801
    -2.2942  -2.1969  -2.1046  -1.9401  -1.8917  -1.8590  -1.8140  -1.7540
    -1.7212  -1.6989  -1.6391  -1.5242  -1.4566  -1.3859  -1.3095  -1.2937
    -1.1171  -1.0805  -0.9298  -0.8793  -0.5811  -0.4673  -0.4115  -0.3925
    -0.2827   0.0203   0.2914   0.5107   0.7056   0.7488   0.8445   0.8927
     1.0028   1.0751   1.1586   1.2024   1.2756   1.3582   1.4176   1.4882
     1.5396   1.5673   1.6374   1.6532   1.6784   1.7440   1.8045   1.8990
     1.9430   1.9796   2.0584   2.0941   2.1865   2.2139   2.2296   2.2738
     2.2948   2.3511   2.3856   2.4272   2.4621   2.5130   2.5397   2.5896
     2.6381   2.6711   2.6924   2.7693   2.7927   2.8253   2.9290   2.9881
     3.0131   3.0780   3.1534   3.1965   3.2228   3.2761   3.3045   3.3362
     3.4199   3.4547   3.5195   3.5554   3.5845   3.6815   3.8303   3.8652
     3.9509   4.0818   4.1199   4.1934   4.2461   4.3659   4.4155   4.5873
     4.9888   5.2548   5.4178   5.5726   5.7282   5.8194   5.9704   6.0661
     6.1270   6.1945   6.2734   6.3211   6.4102   6.4547   6.4859   6.5519
     6.5997   6.6269   6.6740   6.7156   6.7321   6.7845   6.8289   6.8636
     6.9119   6.9259

          k = 0.2529-0.5057-0.5059 (108240 PWs)   bands (ev):

    -7.4140  -6.2606  -6.2003  -6.1034  -5.6463  -5.5367  -5.4768  -5.2405
    -4.9969  -4.9521  -4.8470  -4.7153  -4.5563  -4.5074  -4.3899  -4.2726
    -4.2351  -4.1922  -4.1146  -4.0079  -3.9903  -3.8879  -3.8143  -3.7698
    -3.7369  -3.6984  -3.5827  -3.5781  -3.4158  -3.4078  -3.2620  -3.1180
    -2.2592  -2.0816  -1.9976  -1.9691  -1.9397  -1.8300  -1.7742  -1.6812
    -1.6777  -1.5763  -1.5658  -1.4538  -1.4311  -1.2143  -1.2096  -1.1961
    -1.0872  -1.0849  -0.9504  -0.9485  -0.9143  -0.7713  -0.7266  -0.4464
    -0.1072   0.1578   0.2383   0.4183   0.6664   0.8176   0.9073   0.9219
     1.0292   1.1783   1.1988   1.3340   1.3395   1.3679   1.4551   1.5277
     1.6058   1.6330   1.6512   1.6877   1.7078   1.7379   1.7783   1.8035
     1.8685   1.9409   1.9846   1.9945   2.0211   2.0608   2.1737   2.2265
     2.2437   2.2874   2.3342   2.3591   2.4495   2.4873   2.5949   2.6161
     2.6643   2.6662   2.7350   2.7662   2.8154   2.8180   2.9080   2.9642
     3.0413   3.0530   3.1268   3.1780   3.1992   3.2520   3.3099   3.4435
     3.5610   3.6239   3.6675   3.6979   3.7402   3.7688   3.8621   3.9267
     3.9562   3.9889   4.0665   4.1209   4.2704   4.4160   4.5230   4.6353
     5.1055   5.2652   5.4419   5.5561   5.5982   5.8065   5.9541   6.0800
     6.1060   6.2024   6.2105   6.2687   6.3132   6.3152   6.3598   6.3810
     6.4244   6.4689   6.5068   6.5280   6.6012   6.6050   6.6565   6.6841
     6.7160   6.7491

          k =-0.5059 0.0000 0.0000 (108256 PWs)   bands (ev):

    -7.4355  -6.3697  -6.0280  -5.8285  -5.6663  -5.5887  -5.4265  -5.3022
    -5.1213  -5.1186  -4.9873  -4.7664  -4.6227  -4.5656  -4.5358  -4.4988
    -4.2957  -4.2782  -4.0841  -4.0201  -3.8881  -3.8025  -3.7549  -3.6887
    -3.6373  -3.5031  -3.4451  -3.3226  -3.2456  -3.0137  -2.8474  -2.6869
    -2.6762  -2.6177  -2.3993  -2.3696  -2.0244  -1.9281  -1.8131  -1.7438
    -1.7023  -1.5945  -1.5778  -1.5133  -1.5013  -1.4311  -1.4218  -1.2473
    -1.0869  -1.0446  -0.9560  -0.8345  -0.8180  -0.3667  -0.0621   0.0179
     0.1979   0.2370   0.2622   0.3963   0.5164   0.5210   0.7328   0.8302
     0.8800   0.9250   1.0319   1.0755   1.1150   1.1784   1.3442   1.4834
     1.5583   1.5947   1.6342   1.7151   1.7725   1.8110   1.8498   1.9211
     2.0213   2.0814   2.1057   2.2319   2.2644   2.3002   2.3195   2.3705
     2.3893   2.4316   2.4391   2.4557   2.5448   2.5490   2.5788   2.6110
     2.6636   2.6720   2.6895   2.7021   2.7458   2.7604   2.7907   2.8115
     2.9452   2.9976   3.0761   3.1342   3.1901   3.2382   3.3536   3.4222
     3.4976   3.5207   3.5335   3.6233   3.6772   3.7257   3.7667   3.8268
     3.8331   3.9195   4.0063   4.0261   4.1149   4.1247   4.3683   4.5411
     4.9718   5.2073   5.3704   5.6905   5.7932   6.0009   6.1107   6.2031
     6.2294   6.3513   6.3770   6.4688   6.4768   6.5062   6.5693   6.6320
     6.6535   6.6823   6.7301   6.7861   6.8023   6.8568   6.9898   6.9940
     7.0451   7.0485

          k =-0.5059 0.0000 0.2529 (108224 PWs)   bands (ev):

    -7.4291  -6.3472  -6.0993  -5.9112  -5.6635  -5.5401  -5.3871  -5.2662
    -5.1757  -5.0652  -4.8828  -4.8424  -4.6995  -4.5868  -4.4665  -4.3922
    -4.2368  -4.1320  -4.0854  -4.0076  -3.9133  -3.8565  -3.7844  -3.7538
    -3.6570  -3.5433  -3.5095  -3.4093  -3.2421  -3.1640  -3.0320  -2.9040
    -2.5952  -2.3815  -2.2401  -2.1140  -2.0427  -1.9452  -1.8546  -1.7775
    -1.7095  -1.6830  -1.6042  -1.5424  -1.4679  -1.3683  -1.2628  -1.1794
    -1.0616  -0.9824  -0.8993  -0.7691  -0.6061  -0.5139  -0.3701  -0.3205
    -0.0787   0.1317   0.2530   0.3316   0.5707   0.6899   0.8065   0.8833
     0.9264   1.0682   1.1153   1.1473   1.2239   1.3160   1.3949   1.4514
     1.5087   1.6058   1.6608   1.6694   1.7445   1.8098   1.8736   1.9301
     1.9961   2.0395   2.1319   2.1789   2.2007   2.2194   2.2555   2.3040
     2.3444   2.4142   2.4491   2.4595   2.5014   2.5778   2.6211   2.6641
     2.6913   2.7380   2.7632   2.7923   2.8253   2.8641   2.9086   2.9310
     2.9697   3.0158   3.0196   3.0549   3.1180   3.1706   3.2483   3.2659
     3.3194   3.3826   3.5161   3.5694   3.6126   3.6525   3.7002   3.7500
     3.8614   3.8879   3.9420   4.0998   4.2257   4.3955   4.4609   4.6498
     4.9774   5.3279   5.4759   5.6771   5.8400   5.9702   6.1301   6.1654
     6.2055   6.2943   6.3971   6.4265   6.5298   6.5479   6.5697   6.6111
     6.6437   6.6979   6.7657   6.7940   6.8284   6.8781   6.9276   6.9433
     6.9874   7.0162

          k =-0.5059 0.0000-0.5059 (108204 PWs)   bands (ev):

    -7.4226  -6.3167  -6.1825  -5.9167  -5.6969  -5.5590  -5.3903  -5.2625
    -5.0663  -4.9874  -4.9498  -4.7880  -4.6408  -4.6131  -4.4936  -4.2831
    -4.2521  -4.1122  -4.0318  -4.0067  -3.8929  -3.8677  -3.7779  -3.7583
    -3.7223  -3.6504  -3.6066  -3.4267  -3.3549  -3.1917  -3.0866  -2.9846
    -2.4755  -2.3347  -2.2716  -2.1422  -2.0488  -1.9648  -1.8510  -1.7646
    -1.7140  -1.6016  -1.5111  -1.3847  -1.3041  -1.2017  -1.1633  -1.1336
    -1.0769  -0.9957  -0.9465  -0.8845  -0.7915  -0.5370  -0.4281  -0.3364
    -0.1971  -0.0884   0.0425   0.2723   0.5956   0.6707   0.8463   0.9662
     1.0329   1.1882   1.2212   1.3078   1.3125   1.3641   1.4475   1.5120
     1.5477   1.6365   1.6842   1.7351   1.7462   1.7897   1.8447   1.8587
     1.8980   2.0471   2.0656   2.0766   2.1583   2.1732   2.2569   2.3108
     2.3299   2.3725   2.4070   2.4533   2.4705   2.5066   2.5538   2.6040
     2.6483   2.6511   2.8185   2.8487   2.8535   2.9516   3.0168   3.0363
     3.0853   3.1193   3.1547   3.1642   3.1912   3.2075   3.2538   3.2597
     3.2872   3.3349   3.3973   3.4551   3.4879   3.5101   3.5988   3.6029
     3.6546   3.7144   3.8831   4.2531   4.4083   4.4730   4.6594   4.7187
     5.0294   5.2826   5.4727   5.9205   5.9752   6.0173   6.1394   6.1634
     6.2165   6.2359   6.3743   6.4115   6.4678   6.5104   6.5643   6.6003
     6.6189   6.6826   6.7228   6.7415   6.7805   6.8176   6.8986   6.9152
     6.9584   6.9782

          k =-0.5059 0.2529 0.0000 (108212 PWs)   bands (ev):

    -7.4290  -6.3471  -6.1083  -5.9009  -5.6671  -5.5341  -5.3824  -5.2739
    -5.1770  -5.0576  -4.8862  -4.8421  -4.7010  -4.5895  -4.4696  -4.3915
    -4.2368  -4.1359  -4.0859  -4.0040  -3.9157  -3.8568  -3.7836  -3.7531
    -3.6563  -3.5414  -3.5097  -3.4097  -3.2440  -3.1621  -3.0279  -2.9056
    -2.5892  -2.3827  -2.2414  -2.1123  -2.0447  -1.9452  -1.8553  -1.7807
    -1.7076  -1.6857  -1.6029  -1.5395  -1.4667  -1.3706  -1.2604  -1.1804
    -1.0637  -0.9814  -0.9036  -0.7687  -0.6040  -0.5118  -0.3734  -0.3224
    -0.0835   0.1335   0.2529   0.3330   0.5723   0.6916   0.8076   0.8842
     0.9266   1.0671   1.1189   1.1464   1.2280   1.3174   1.3949   1.4480
     1.5088   1.6063   1.6635   1.6713   1.7436   1.8105   1.8731   1.9301
     1.9954   2.0365   2.1304   2.1762   2.1996   2.2180   2.2555   2.3033
     2.3454   2.4173   2.4485   2.4604   2.5025   2.5768   2.6180   2.6661
     2.6904   2.7369   2.7643   2.7945   2.8249   2.8632   2.9078   2.9296
     2.9698   3.0135   3.0201   3.0522   3.1175   3.1753   3.2445   3.2657
     3.3213   3.3805   3.5163   3.5687   3.6100   3.6549   3.6982   3.7511
     3.8639   3.8898   3.9424   4.1020   4.2277   4.3928   4.4619   4.6495
     4.9755   5.3286   5.4732   5.6703   5.8396   5.9719   6.1271   6.1711
     6.2106   6.2992   6.3990   6.4297   6.5284   6.5495   6.5704   6.6122
     6.6442   6.6984   6.7672   6.7964   6.8285   6.8761   6.9272   6.9422
     6.9873   7.0148

          k =-0.5059 0.2529 0.2529 (108280 PWs)   bands (ev):

    -7.4228  -6.3250  -6.0867  -6.0556  -5.6248  -5.5609  -5.3694  -5.2711
    -5.1645  -5.0211  -4.8547  -4.7753  -4.7536  -4.5208  -4.4528  -4.1834
    -4.1729  -4.1581  -4.1318  -4.0055  -3.9670  -3.8906  -3.7704  -3.7586
    -3.6021  -3.6000  -3.5431  -3.4989  -3.3819  -3.3287  -3.2011  -3.0782
    -2.3076  -2.2618  -2.2086  -2.0869  -1.9514  -1.8720  -1.8194  -1.7401
    -1.7070  -1.6038  -1.5778  -1.4959  -1.3811  -1.2855  -1.2432  -1.2068
    -1.0634  -1.0406  -0.9836  -0.8013  -0.7959  -0.6854  -0.5071  -0.4709
    -0.1632   0.1677   0.4092   0.5325   0.7789   0.8004   0.8201   0.9522
     0.9803   1.0348   1.1227   1.2295   1.3022   1.3378   1.3471   1.4204
     1.4682   1.4928   1.5810   1.6553   1.7293   1.7807   1.8097   1.9079
     1.9252   2.0008   2.0533   2.1108   2.1372   2.2150   2.2540   2.2601
     2.2922   2.3464   2.3810   2.4184   2.4893   2.5355   2.5522   2.5645
     2.6245   2.6613   2.7202   2.8249   2.8399   2.8990   2.9072   2.9654
     3.0025   3.0592   3.1109   3.1336   3.1848   3.2230   3.2377   3.3181
     3.3469   3.3530   3.4652   3.5578   3.6217   3.8081   3.9341   3.9575
     4.0450   4.1074   4.1853   4.2218   4.2992   4.3337   4.3876   4.6115
     4.8685   5.2509   5.5605   5.7364   5.7833   5.9472   6.0377   6.0983
     6.1273   6.2309   6.2847   6.2926   6.3726   6.3773   6.4220   6.4641
     6.5530   6.5668   6.6222   6.6642   6.6822   6.7334   6.7429   6.8239
     6.8258   6.8967

          k =-0.5059 0.2529-0.5059 (108240 PWs)   bands (ev):

    -7.4166  -6.2985  -6.1610  -6.0393  -5.6737  -5.5538  -5.4784  -5.2621
    -5.0983  -4.9854  -4.8147  -4.6952  -4.6235  -4.5225  -4.3307  -4.2414
    -4.1894  -4.1204  -4.0453  -4.0234  -3.9150  -3.8777  -3.7954  -3.7810
    -3.7444  -3.6659  -3.6284  -3.5892  -3.4849  -3.4181  -3.3140  -3.1239
    -2.2970  -2.1834  -2.0733  -1.9498  -1.9117  -1.8196  -1.7767  -1.6823
    -1.6451  -1.5665  -1.4600  -1.3817  -1.3458  -1.2784  -1.2187  -1.1760
    -1.1491  -1.0815  -1.0269  -1.0061  -0.9431  -0.8036  -0.6634  -0.3797
    -0.0803   0.1281   0.2820   0.5676   0.6826   0.7689   0.8336   0.9544
     1.0185   1.1408   1.2272   1.2684   1.3335   1.3691   1.4714   1.5372
     1.6087   1.6347   1.6636   1.6775   1.7326   1.7639   1.7763   1.8116
     1.8781   1.9168   1.9503   1.9863   1.9984   2.0500   2.1201   2.1695
     2.1993   2.2819   2.3488   2.3891   2.4072   2.4644   2.5301   2.5888
     2.6407   2.7050   2.7327   2.7920   2.8118   2.8795   2.9168   3.0308
     3.0440   3.0900   3.1358   3.1634   3.1940   3.2772   3.3906   3.4453
     3.5220   3.5843   3.6145   3.6652   3.7300   3.7960   3.8698   3.9265
     3.9589   3.9854   4.1317   4.2848   4.3793   4.4319   4.5200   4.5813
     5.0291   5.2307   5.4096   5.5990   5.7102   5.8026   5.9329   5.9963
     6.0754   6.1363   6.1981   6.2440   6.2636   6.2866   6.3592   6.3994
     6.4340   6.4618   6.4971   6.5423   6.5693   6.5896   6.6500   6.6918
     6.7277   6.7614

          k =-0.5059-0.5057 0.0000 (108204 PWs)   bands (ev):

    -7.4222  -6.3164  -6.1931  -5.9036  -5.7079  -5.5479  -5.3821  -5.2667
    -5.0569  -4.9871  -4.9539  -4.7924  -4.6498  -4.6162  -4.4936  -4.2859
    -4.2595  -4.1124  -4.0321  -4.0069  -3.8919  -3.8624  -3.7759  -3.7575
    -3.7182  -3.6525  -3.6073  -3.4286  -3.3515  -3.1920  -3.0829  -2.9856
    -2.4701  -2.3283  -2.2722  -2.1426  -2.0517  -1.9665  -1.8482  -1.7677
    -1.7142  -1.6049  -1.5131  -1.3860  -1.2985  -1.1985  -1.1650  -1.1306
    -1.0768  -0.9967  -0.9500  -0.8889  -0.7956  -0.5442  -0.4256  -0.3381
    -0.1984  -0.0863   0.0431   0.2750   0.5983   0.6738   0.8492   0.9655
     1.0287   1.1842   1.2197   1.3138   1.3227   1.3645   1.4482   1.5148
     1.5519   1.6364   1.6835   1.7319   1.7487   1.7926   1.8448   1.8597
     1.8967   2.0426   2.0583   2.0769   2.1585   2.1728   2.2581   2.3113
     2.3333   2.3698   2.4055   2.4515   2.4686   2.5053   2.5553   2.6042
     2.6450   2.6478   2.8204   2.8499   2.8523   2.9491   3.0169   3.0307
     3.0879   3.1154   3.1524   3.1640   3.1930   3.2097   3.2512   3.2622
     3.2852   3.3344   3.3965   3.4536   3.4863   3.5114   3.5973   3.6054
     3.6590   3.7173   3.8845   4.2497   4.4177   4.4746   4.6572   4.7160
     5.0272   5.2801   5.4663   5.9191   5.9762   6.0145   6.1420   6.1687
     6.2266   6.2378   6.3787   6.4143   6.4754   6.5079   6.5620   6.5989
     6.6194   6.6847   6.7223   6.7396   6.7817   6.8197   6.9014   6.9192
     6.9539   6.9769

          k =-0.5059-0.5057 0.2529 (108240 PWs)   bands (ev):

    -7.4164  -6.2984  -6.1713  -6.0273  -5.6837  -5.5443  -5.4802  -5.2521
    -5.0984  -4.9870  -4.8194  -4.6979  -4.6266  -4.5198  -4.3320  -4.2473
    -4.1918  -4.1199  -4.0486  -4.0229  -3.9125  -3.8753  -3.7913  -3.7796
    -3.7437  -3.6629  -3.6297  -3.5886  -3.4856  -3.4193  -3.3152  -3.1229
    -2.2924  -2.1817  -2.0733  -1.9509  -1.9129  -1.8182  -1.7754  -1.6843
    -1.6481  -1.5678  -1.4618  -1.3806  -1.3437  -1.2760  -1.2171  -1.1761
    -1.1490  -1.0827  -1.0291  -1.0076  -0.9429  -0.8090  -0.6633  -0.3788
    -0.0789   0.1248   0.2830   0.5643   0.6866   0.7721   0.8372   0.9532
     1.0173   1.1420   1.2283   1.2678   1.3346   1.3710   1.4708   1.5362
     1.6076   1.6377   1.6691   1.6778   1.7317   1.7616   1.7770   1.8112
     1.8786   1.9127   1.9517   1.9847   1.9984   2.0439   2.1225   2.1713
     2.1998   2.2835   2.3497   2.3890   2.4069   2.4604   2.5303   2.5870
     2.6430   2.7017   2.7315   2.7924   2.8109   2.8811   2.9166   3.0293
     3.0442   3.0913   3.1371   3.1649   3.1900   3.2760   3.3915   3.4442
     3.5217   3.5832   3.6140   3.6632   3.7333   3.7949   3.8729   3.9244
     3.9593   3.9835   4.1318   4.2875   4.3862   4.4310   4.5208   4.5773
     5.0289   5.2291   5.4068   5.5963   5.7127   5.8084   5.9347   5.9944
     6.0745   6.1401   6.2010   6.2394   6.2661   6.2842   6.3596   6.3981
     6.4317   6.4646   6.4961   6.5418   6.5702   6.5886   6.6494   6.6929
     6.7275   6.7614

          k =-0.5059-0.5057-0.5059 (108352 PWs)   bands (ev):

    -7.4104  -6.2762  -6.1679  -6.0820  -5.6577  -5.6101  -5.6035  -5.1698
    -5.1242  -4.8521  -4.8275  -4.7078  -4.4763  -4.3094  -4.2973  -4.2196
    -4.1352  -4.1076  -4.0671  -3.9823  -3.9177  -3.8706  -3.8298  -3.8130
    -3.7828  -3.7159  -3.6802  -3.6519  -3.6129  -3.5883  -3.5642  -3.2833
    -2.1189  -1.9868  -1.9069  -1.8904  -1.8217  -1.6696  -1.6037  -1.5413
    -1.4822  -1.4222  -1.4032  -1.3792  -1.3381  -1.3326  -1.3101  -1.2885
    -1.2707  -1.2548  -1.1819  -1.0869  -1.0829  -1.0432  -0.9205  -0.4354
     0.1065   0.3295   0.5537   0.6367   0.7406   0.8869   0.8921   0.9595
     1.1118   1.1246   1.1935   1.2920   1.3133   1.3932   1.4866   1.4981
     1.5957   1.6028   1.6150   1.6667   1.6898   1.7277   1.7435   1.8077
     1.8112   1.8233   1.8347   1.8585   1.8898   1.9129   1.9602   1.9871
     2.0795   2.0922   2.1672   2.1716   2.3831   2.4915   2.5726   2.6536
     2.6906   2.7622   2.8388   2.8828   2.9376   2.9600   2.9732   3.0520
     3.0586   3.0900   3.1099   3.1421   3.1702   3.3060   3.3276   3.5075
     3.7357   3.7453   3.8650   3.9051   3.9509   4.0886   4.1062   4.1994
     4.2192   4.2662   4.2763   4.3176   4.3521   4.4072   4.4102   4.4178
     5.0406   5.2116   5.2968   5.4280   5.4948   5.6166   5.8404   5.8619
     5.8890   5.9863   6.0357   6.0467   6.0704   6.1242   6.1676   6.2077
     6.2144   6.2350   6.2658   6.2771   6.3335   6.4084   6.4527   6.5312
     6.5393   6.5678

          k = 0.0000-0.2529 0.2529 (108242 PWs)   bands (ev):

    -7.4315  -6.2883  -6.1523  -6.0440  -5.5098  -5.4532  -5.3970  -5.2534
    -5.1215  -5.0245  -4.9333  -4.8583  -4.6269  -4.5828  -4.5440  -4.4823
    -4.3217  -4.2409  -4.1950  -4.1114  -3.9504  -3.9077  -3.8727  -3.8278
    -3.6781  -3.4326  -3.2626  -3.1642  -3.1363  -2.9899  -2.8985  -2.7746
    -2.5397  -2.4317  -2.3387  -2.2067  -2.1614  -2.0529  -1.9524  -1.8540
    -1.7974  -1.7258  -1.6389  -1.5070  -1.4683  -1.4381  -1.2656  -1.1770
    -1.1341  -1.0109  -0.7973  -0.6977  -0.6361  -0.4112  -0.2802  -0.1378
    -0.0465   0.0860   0.2475   0.5023   0.5319   0.7584   0.8378   0.8739
     1.0080   1.0272   1.0984   1.1805   1.2036   1.3009   1.3447   1.4639
     1.4917   1.5578   1.5917   1.6529   1.7094   1.7599   1.8031   1.9089
     1.9433   1.9655   2.0027   2.0246   2.0540   2.1400   2.1543   2.2019
     2.2398   2.2931   2.3405   2.3663   2.4401   2.4910   2.6051   2.6108
     2.6313   2.6596   2.7843   2.8538   2.9049   2.9326   3.0234   3.0701
     3.1197   3.1733   3.1947   3.2850   3.3565   3.3755   3.4165   3.4836
     3.4960   3.5386   3.5830   3.6436   3.6771   3.7187   3.7821   3.7880
     3.8178   3.8442   3.8901   3.9362   4.0960   4.3684   4.4829   4.5940
     5.1237   5.2711   5.3444   5.4097   5.6496   5.8285   5.8792   5.9480
     6.0748   6.1959   6.2157   6.2723   6.2938   6.3760   6.4922   6.5467
     6.5928   6.6065   6.6427   6.7397   6.8097   6.9024   6.9280   6.9610
     6.9793   7.0087

          k =-0.2529 0.0000 0.2529 (108246 PWs)   bands (ev):

    -7.4338  -6.3144  -6.1359  -5.9369  -5.6043  -5.5111  -5.3216  -5.2893
    -5.1926  -5.0158  -4.9006  -4.8470  -4.7784  -4.5842  -4.4733  -4.4055
    -4.3002  -4.2362  -4.2006  -4.0364  -3.9827  -3.9559  -3.8273  -3.7713
    -3.5822  -3.4270  -3.2273  -3.1862  -3.1457  -3.0567  -2.9981  -2.8414
    -2.6861  -2.3279  -2.2763  -2.1384  -2.1017  -2.0192  -1.9796  -1.8735
    -1.7664  -1.7320  -1.7055  -1.6588  -1.5978  -1.4494  -1.2283  -1.1964
    -1.0972  -0.9667  -0.7422  -0.6250  -0.4840  -0.3733  -0.2418  -0.1666
    -0.1058   0.0997   0.2046   0.4433   0.5464   0.7250   0.7902   0.9095
     0.9702   1.0382   1.0987   1.1677   1.2802   1.3509   1.3867   1.4380
     1.4725   1.5591   1.5758   1.6336   1.6711   1.7090   1.7808   1.8220
     1.9229   1.9416   2.0093   2.0227   2.0830   2.1526   2.2114   2.2461
     2.3214   2.3360   2.3601   2.3938   2.4287   2.4968   2.5484   2.5760
     2.5850   2.7124   2.7677   2.8541   2.9307   2.9792   3.0352   3.0744
     3.1056   3.1591   3.1880   3.2443   3.2977   3.3405   3.3738   3.3976
     3.4560   3.4928   3.5587   3.5991   3.6423   3.6889   3.7825   3.8414
     3.8509   3.9048   3.9336   4.0443   4.2250   4.3381   4.5527   4.6822
     5.0103   5.3037   5.3984   5.6147   5.7239   5.8557   5.8871   6.0073
     6.0436   6.0752   6.1719   6.2790   6.3115   6.3821   6.4257   6.4920
     6.5420   6.6206   6.6442   6.6866   6.7543   6.8069   6.8777   6.9197
     7.0068   7.0317

          k =-0.2529 0.2529 0.0000 (108238 PWs)   bands (ev):

    -7.4337  -6.3147  -6.1445  -5.9272  -5.5998  -5.5095  -5.3204  -5.2964
    -5.1953  -5.0115  -4.9009  -4.8436  -4.7843  -4.5861  -4.4738  -4.4030
    -4.2978  -4.2357  -4.2026  -4.0366  -3.9843  -3.9610  -3.8285  -3.7729
    -3.5787  -3.4262  -3.2258  -3.1848  -3.1441  -3.0528  -2.9978  -2.8424
    -2.6814  -2.3314  -2.2789  -2.1388  -2.1047  -2.0203  -1.9800  -1.8751
    -1.7663  -1.7304  -1.7056  -1.6585  -1.5947  -1.4570  -1.2230  -1.1909
    -1.0939  -0.9672  -0.7436  -0.6313  -0.4876  -0.3762  -0.2396  -0.1655
    -0.1031   0.1016   0.2065   0.4444   0.5483   0.7254   0.7921   0.9106
     0.9712   1.0407   1.0972   1.1666   1.2791   1.3484   1.3801   1.4342
     1.4732   1.5571   1.5733   1.6356   1.6676   1.7085   1.7843   1.8237
     1.9227   1.9393   2.0074   2.0216   2.0829   2.1534   2.2120   2.2454
     2.3226   2.3347   2.3622   2.3970   2.4295   2.4945   2.5489   2.5764
     2.5821   2.7139   2.7669   2.8523   2.9341   2.9808   3.0406   3.0793
     3.1113   3.1588   3.1861   3.2447   3.2963   3.3411   3.3732   3.3933
     3.4571   3.4928   3.5602   3.5962   3.6407   3.6831   3.7865   3.8419
     3.8543   3.9055   3.9378   4.0454   4.2257   4.3344   4.5540   4.6742
     5.0111   5.3016   5.4027   5.6173   5.7245   5.8545   5.8840   6.0031
     6.0414   6.0714   6.1724   6.2785   6.3115   6.3733   6.4281   6.4903
     6.5401   6.6203   6.6408   6.6856   6.7536   6.8058   6.8798   6.9177
     7.0060   7.0355

          k =-0.2529-0.2529 0.2529 (108297 PWs)   bands (ev):

    -7.4273  -6.3064  -6.1362  -6.0295  -5.5874  -5.4483  -5.3753  -5.3434
    -5.1958  -5.0438  -4.8057  -4.7713  -4.5907  -4.5618  -4.5088  -4.4530
    -4.3339  -4.1695  -4.1401  -4.0830  -3.9455  -3.9052  -3.8268  -3.7347
    -3.6952  -3.4953  -3.3731  -3.2980  -3.2139  -3.1767  -3.1347  -3.0747
    -2.3488  -2.2885  -2.1732  -2.1012  -2.0256  -1.9246  -1.8147  -1.7846
    -1.7530  -1.6865  -1.6610  -1.6391  -1.5776  -1.4237  -1.3669  -1.1124
    -1.0025  -0.9203  -0.8904  -0.7994  -0.7271  -0.4708  -0.2740  -0.1632
    -0.1279   0.0112   0.1996   0.3726   0.5421   0.7425   0.8115   0.9982
     1.0233   1.0783   1.0940   1.2179   1.2755   1.3270   1.3847   1.4391
     1.5436   1.5974   1.6309   1.6728   1.7337   1.7768   1.8303   1.8911
     1.9138   1.9487   1.9923   2.0343   2.0925   2.1382   2.1958   2.2325
     2.2742   2.3245   2.3547   2.4168   2.4621   2.5263   2.5855   2.6194
     2.6745   2.7142   2.7640   2.8050   2.8652   2.9425   2.9716   3.0095
     3.0607   3.1198   3.1548   3.2069   3.2259   3.2528   3.2804   3.4260
     3.4798   3.5192   3.5508   3.6430   3.6619   3.6754   3.6983   3.7623
     3.8406   3.8863   4.0536   4.1642   4.2265   4.3326   4.5162   4.6805
     5.1055   5.2512   5.2918   5.4625   5.6881   5.8023   5.9163   5.9886
     6.0798   6.1278   6.2219   6.3106   6.4087   6.4615   6.5114   6.5459
     6.5869   6.6500   6.6754   6.7387   6.7622   6.8020   6.8301   6.8768
     6.9419   6.9826

          k =-0.2529 0.2529-0.2529 (108297 PWs)   bands (ev):

    -7.4273  -6.3054  -6.1398  -6.0273  -5.5848  -5.4481  -5.3781  -5.3393
    -5.2010  -5.0426  -4.8080  -4.7764  -4.5866  -4.5584  -4.5074  -4.4518
    -4.3337  -4.1693  -4.1382  -4.0837  -3.9477  -3.9053  -3.8304  -3.7360
    -3.6944  -3.4947  -3.3745  -3.2940  -3.2158  -3.1752  -3.1345  -3.0736
    -2.3523  -2.2857  -2.1725  -2.1035  -2.0253  -1.9257  -1.8181  -1.7862
    -1.7532  -1.6863  -1.6615  -1.6373  -1.5739  -1.4244  -1.3638  -1.1156
    -1.0052  -0.9208  -0.8919  -0.7991  -0.7255  -0.4685  -0.2715  -0.1589
    -0.1234   0.0131   0.1989   0.3709   0.5426   0.7431   0.8111   0.9976
     1.0221   1.0771   1.0964   1.2135   1.2714   1.3234   1.3801   1.4370
     1.5415   1.5968   1.6283   1.6720   1.7349   1.7765   1.8267   1.8892
     1.9129   1.9509   1.9923   2.0370   2.0933   2.1372   2.1954   2.2345
     2.2732   2.3247   2.3552   2.4166   2.4626   2.5257   2.5825   2.6244
     2.6786   2.7172   2.7672   2.8058   2.8625   2.9446   2.9716   3.0116
     3.0625   3.1231   3.1590   3.2109   3.2289   3.2569   3.2844   3.4226
     3.4772   3.5177   3.5533   3.6441   3.6632   3.6771   3.6991   3.7633
     3.8413   3.8861   4.0471   4.1585   4.2224   4.3291   4.5168   4.6740
     5.1076   5.2486   5.2968   5.4644   5.6848   5.8002   5.9135   5.9843
     6.0795   6.1267   6.2191   6.3061   6.4021   6.4578   6.5073   6.5443
     6.5854   6.6470   6.6761   6.7404   6.7626   6.8009   6.8318   6.8786
     6.9446   6.9828

          k = 0.2529-0.2529-0.2529 (108297 PWs)   bands (ev):

    -7.4271  -6.2912  -6.1283  -6.0894  -5.5200  -5.4429  -5.3996  -5.2797
    -5.1765  -5.0410  -4.8456  -4.7937  -4.7538  -4.6888  -4.4868  -4.2798
    -4.2698  -4.1591  -4.0944  -4.0889  -3.9818  -3.8868  -3.8333  -3.7418
    -3.7231  -3.4981  -3.3134  -3.2946  -3.2287  -3.2140  -3.1718  -2.9938
    -2.3361  -2.2468  -2.2161  -2.0814  -1.9577  -1.9134  -1.9115  -1.8456
    -1.7967  -1.7458  -1.6993  -1.6494  -1.6139  -1.4567  -1.2843  -1.0367
    -0.9694  -0.8617  -0.8582  -0.7948  -0.7271  -0.5365  -0.3574  -0.2771
    -0.1219   0.1925   0.2005   0.3567   0.7255   0.8576   0.8778   1.0004
     1.0061   1.0798   1.1577   1.2439   1.2694   1.2993   1.3994   1.4235
     1.4735   1.5302   1.5692   1.5748   1.6026   1.6800   1.7390   1.8026
     1.9003   1.9757   2.0228   2.1077   2.1168   2.2098   2.2316   2.2679
     2.2883   2.3106   2.3286   2.4370   2.4517   2.5149   2.5863   2.5886
     2.6527   2.7485   2.8121   2.8617   2.9256   2.9277   2.9691   2.9822
     3.0228   3.0387   3.0773   3.1152   3.1434   3.2090   3.2787   3.3714
     3.3814   3.5057   3.5322   3.6189   3.6684   3.7539   3.7681   3.8497
     3.9167   4.0032   4.1625   4.2054   4.2842   4.4464   4.5972   4.6033
     4.9604   5.2975   5.6727   5.7174   5.8235   5.8675   5.8906   6.0147
     6.1480   6.1872   6.2718   6.3029   6.3129   6.3237   6.3627   6.4664
     6.4769   6.6015   6.6369   6.6658   6.6832   6.7009   6.7589   6.8044
     6.8154   6.9053

          k =-0.2529 0.2529 0.5059 (108280 PWs)   bands (ev):

    -7.4205  -6.2769  -6.1836  -6.0801  -5.5571  -5.5071  -5.4418  -5.2741
    -5.1338  -4.8929  -4.8608  -4.7504  -4.6821  -4.6170  -4.4597  -4.3735
    -4.1888  -4.1520  -4.1302  -4.0428  -3.9578  -3.9190  -3.8201  -3.7477
    -3.6106  -3.5612  -3.5169  -3.4620  -3.3613  -3.2616  -3.2259  -3.0863
    -2.3489  -2.2021  -2.0723  -2.0287  -1.9078  -1.8937  -1.8484  -1.7738
    -1.7132  -1.6815  -1.5834  -1.4801  -1.4490  -1.3495  -1.2766  -1.1977
    -1.0724  -1.0417  -0.9587  -0.8165  -0.7147  -0.6434  -0.4191  -0.3806
    -0.2705  -0.0802   0.3093   0.6849   0.7421   0.7850   0.8942   0.9644
     0.9905   1.0893   1.1286   1.2288   1.2893   1.3457   1.3895   1.4457
     1.4665   1.5083   1.5725   1.6246   1.7389   1.7769   1.8252   1.8505
     1.9469   1.9875   2.0208   2.1106   2.1344   2.1944   2.2311   2.2991
     2.3201   2.3426   2.3617   2.4544   2.5024   2.5237   2.5605   2.6089
     2.6458   2.6801   2.7374   2.7698   2.8157   2.8495   2.9017   2.9234
     2.9827   3.0606   3.1277   3.1570   3.2167   3.2346   3.2680   3.3225
     3.3798   3.4344   3.4867   3.5271   3.5711   3.6550   3.8413   3.9983
     4.0215   4.1130   4.1730   4.1967   4.2720   4.3378   4.3907   4.6434
     5.0332   5.2631   5.6124   5.6527   5.7773   5.8550   5.9597   6.1051
     6.1701   6.2354   6.2609   6.3022   6.3394   6.4045   6.4103   6.4934
     6.5281   6.5854   6.6203   6.6719   6.6892   6.7226   6.7680   6.7858
     6.8408   6.8971

          k =-0.2529 0.5057 0.2529 (108276 PWs)   bands (ev):

    -7.4203  -6.2798  -6.1908  -6.0683  -5.5648  -5.5108  -5.4335  -5.2669
    -5.1306  -4.8955  -4.8661  -4.7469  -4.6820  -4.6193  -4.4676  -4.3739
    -4.1880  -4.1534  -4.1326  -4.0434  -3.9568  -3.9189  -3.8176  -3.7424
    -3.6109  -3.5602  -3.5147  -3.4618  -3.3610  -3.2630  -3.2289  -3.0859
    -2.3438  -2.1993  -2.0730  -2.0294  -1.9102  -1.8932  -1.8522  -1.7753
    -1.7156  -1.6834  -1.5811  -1.4762  -1.4491  -1.3481  -1.2763  -1.1964
    -1.0716  -1.0395  -0.9602  -0.8157  -0.7150  -0.6431  -0.4248  -0.3852
    -0.2763  -0.0792   0.3122   0.6861   0.7431   0.7852   0.8996   0.9647
     0.9907   1.0895   1.1282   1.2300   1.2895   1.3493   1.3912   1.4461
     1.4720   1.5105   1.5701   1.6244   1.7378   1.7756   1.8219   1.8439
     1.9471   1.9888   2.0202   2.1085   2.1329   2.1970   2.2332   2.3033
     2.3234   2.3430   2.3633   2.4525   2.5044   2.5206   2.5583   2.6072
     2.6418   2.6766   2.7368   2.7695   2.8154   2.8516   2.9029   2.9268
     2.9811   3.0606   3.1234   3.1533   3.2184   3.2316   3.2652   3.3179
     3.3755   3.4381   3.4834   3.5247   3.5704   3.6554   3.8436   4.0047
     4.0247   4.1133   4.1757   4.2026   4.2752   4.3397   4.3883   4.6411
     5.0339   5.2631   5.6116   5.6451   5.7793   5.8574   5.9615   6.1059
     6.1723   6.2359   6.2657   6.3065   6.3400   6.4058   6.4123   6.4969
     6.5277   6.5861   6.6204   6.6711   6.6888   6.7220   6.7687   6.7862
     6.8404   6.8951

          k = 0.5059-0.2529 0.2529 (108280 PWs)   bands (ev):

    -7.4229  -6.3272  -6.1150  -6.0042  -5.6692  -5.4779  -5.4190  -5.3047
    -5.2237  -5.0258  -4.8904  -4.6667  -4.5885  -4.5153  -4.4465  -4.3947
    -4.1719  -4.1350  -4.1102  -3.9813  -3.9180  -3.8662  -3.8152  -3.7685
    -3.6952  -3.6006  -3.5880  -3.4928  -3.3671  -3.2969  -3.1559  -3.1172
    -2.2780  -2.2732  -2.1028  -2.0337  -1.9563  -1.8510  -1.8099  -1.7937
    -1.7072  -1.6480  -1.5787  -1.4897  -1.4237  -1.4149  -1.3344  -1.2860
    -1.0824  -1.0086  -0.9119  -0.7326  -0.5416  -0.4825  -0.4549  -0.4335
    -0.3237  -0.0253   0.2628   0.3993   0.6555   0.7775   0.8094   0.8773
     0.9965   1.1094   1.1849   1.2255   1.2382   1.3504   1.4169   1.5155
     1.5583   1.6177   1.6397   1.6518   1.7159   1.7933   1.8687   1.8872
     1.9217   1.9625   2.0004   2.1079   2.1879   2.2309   2.2669   2.3004
     2.3246   2.4034   2.4166   2.4329   2.4814   2.4949   2.5253   2.5697
     2.6105   2.6238   2.6828   2.7054   2.8743   2.8908   2.9282   2.9930
     3.0373   3.0818   3.1328   3.1653   3.2160   3.2291   3.2607   3.3194
     3.3703   3.4285   3.4642   3.5847   3.6458   3.6660   3.8108   3.8686
     3.9499   4.0323   4.0893   4.1403   4.2856   4.3957   4.4467   4.5690
     5.1175   5.2725   5.3798   5.5290   5.6762   5.8265   5.9377   6.0445
     6.0936   6.2366   6.2954   6.3440   6.4116   6.4475   6.4770   6.5787
     6.5904   6.6183   6.6820   6.7137   6.7375   6.8319   6.8569   6.8849
     6.9089   6.9400

     the Fermi energy is     4.8162 ev

!    total energy              =    -506.30701106 Ry
     Harris-Foulkes estimate   =    -506.30701106 Ry
     estimated scf accuracy    <          4.7E-09 Ry

     The total energy is the sum of the following terms:

     one-electron contribution =      98.83302020 Ry
     hartree contribution      =      47.66125064 Ry
     xc contribution           =    -149.33738585 Ry
     ewald contribution        =    -503.46033109 Ry
     smearing contrib. (-TS)   =      -0.00356496 Ry

     convergence has been achieved in  25 iterations

     Forces acting on atoms (Ry/au):

     atom    1 type  4   force =    -0.14197785   -0.02653640   -0.02757279
     atom    2 type  4   force =    -0.20940136    0.21563102    0.21585198
     atom    3 type  4   force =    -0.00651142    0.00749728    0.05795206
     atom    4 type  4   force =    -0.00163617   -0.00315886    0.07326075
     atom    5 type  4   force =     0.00171994   -0.00037330    0.07505044
     atom    6 type  4   force =    -0.09599437    0.04261938    0.08686595
     atom    7 type  4   force =    -0.00352122   -0.02704857    0.06292055
     atom    8 type  4   force =    -0.00304716   -0.00793346    0.05709196
     atom    9 type  4   force =     0.07987712    0.00404963    0.00534344
     atom   10 type  4   force =     0.03182588    0.01110727    0.01226794
     atom   11 type  4   force =     0.00313620   -0.00081938    0.00658337
     atom   12 type  4   force =    -0.00907428    0.00070808    0.01437544
     atom   13 type  4   force =     0.07126318   -0.00604355    0.01331072
     atom   14 type  4   force =     0.00280951   -0.00065395    0.00692795
     atom   15 type  4   force =     0.07869635   -0.19201029    0.21203910
     atom   16 type  4   force =    -0.01070280   -0.07470648    0.00869680
     atom   17 type  4   force =    -0.00630847    0.05769028    0.00739782
     atom   18 type  4   force =    -0.00152939    0.07257883   -0.00332282
     atom   19 type  4   force =    -0.00989516   -0.00301185   -0.00370489
     atom   20 type  4   force =    -0.07377351    0.00330200    0.00279036
     atom   21 type  4   force =     0.00696012    0.00100777   -0.00037088
     atom   22 type  4   force =    -0.00272907   -0.00011201   -0.00082355
     atom   23 type  4   force =     0.01430219   -0.01246750   -0.00217677
     atom   24 type  4   force =    -0.07488641   -0.00656983    0.00205475
     atom   25 type  4   force =     0.00221898    0.00522179   -0.00031804
     atom   26 type  4   force =    -0.00986608    0.01311465    0.00109089
     atom   27 type  4   force =     0.07023996    0.00017141    0.00048211
     atom   28 type  4   force =     0.00899323    0.00064915    0.00109157
     atom   29 type  4   force =    -0.00404339   -0.00001994    0.00035345
     atom   30 type  4   force =    -0.00789061   -0.00188444   -0.00042288
     atom   31 type  4   force =     0.09514393   -0.08648071   -0.03651579
     atom   32 type  4   force =    -0.00083115   -0.07019236    0.00144607
     atom   33 type  4   force =     0.00208113    0.07387286   -0.00138542
     atom   34 type  4   force =    -0.09463676    0.08450123    0.04019073
     atom   35 type  4   force =     0.00701270   -0.00018690   -0.00032397
     atom   36 type  4   force =    -0.00273126   -0.00054871   -0.00142776
     atom   37 type  4   force =    -0.00072088   -0.00040929   -0.00131585
     atom   38 type  4   force =    -0.07285695    0.00014168   -0.00058449
     atom   39 type  4   force =     0.00642189   -0.00908503    0.00002688
     atom   40 type  4   force =    -0.00026745   -0.00730492    0.00017265
     atom   41 type  4   force =     0.07110342    0.01245090   -0.00512073
     atom   42 type  4   force =     0.00279004    0.00550719    0.00046969
     atom   43 type  4   force =    -0.00319718   -0.00006540    0.00109026
     atom   44 type  4   force =    -0.00703128   -0.00084340   -0.00084676
     atom   45 type  4   force =     0.07322344   -0.00024919    0.00066703
     atom   46 type  4   force =     0.00608191   -0.00097992    0.00012629
     atom   47 type  4   force =     0.00309875   -0.07172859   -0.00050971
     atom   48 type  4   force =    -0.00867932   -0.06448164   -0.00266210
     atom   49 type  4   force =    -0.00341636    0.06158192   -0.02735878
     atom   50 type  4   force =    -0.00300742    0.05670204   -0.00831080
     atom   51 type  4   force =     0.01417551   -0.00152366   -0.01337365
     atom   52 type  4   force =    -0.07490936    0.00258429   -0.00733088
     atom   53 type  4   force =     0.00647361    0.00134502   -0.00953986
     atom   54 type  4   force =    -0.00032375    0.00151231   -0.00778790
     atom   55 type  4   force =    -0.00667658   -0.00233630   -0.00320571
     atom   56 type  4   force =    -0.07501997   -0.01407009   -0.01490102
     atom   57 type  4   force =     0.07927023    0.21146457   -0.19110735
     atom   58 type  4   force =    -0.01146395    0.00744275   -0.07626730
     atom   59 type  4   force =     0.09638117   -0.03857095   -0.08900852
     atom   60 type  4   force =    -0.00051247    0.00086522   -0.07177180
     atom   61 type  4   force =     0.00232474   -0.00139425   -0.07315003
     atom   62 type  4   force =    -0.00939338   -0.00366081   -0.06589569
     atom   63 type  4   force =     0.21744147   -0.20436764   -0.20488951
     atom   64 type  4   force =    -0.00660240   -0.01349092   -0.01468500

     Total force =     0.826505     Total SCF correction =     0.000000

     Writing output data file Si.save
 
     init_run     :     15.45s CPU     15.69s WALL (       1 calls)
     electrons    :   1790.73s CPU   1801.67s WALL (       1 calls)
     forces       :      6.77s CPU      6.81s WALL (       1 calls)

     Called by init_run:
     wfcinit      :     14.56s CPU     14.76s WALL (       1 calls)
     potinit      :      0.33s CPU      0.34s WALL (       1 calls)

     Called by electrons:
     c_bands      :   1661.25s CPU   1670.42s WALL (      25 calls)
     sum_band     :    128.98s CPU    130.63s WALL (      25 calls)
     v_of_rho     :      0.13s CPU      0.14s WALL (      26 calls)
     mix_rho      :      0.25s CPU      0.30s WALL (      25 calls)

     Called by c_bands:
     init_us_2    :     12.46s CPU     12.55s WALL (    1872 calls)
     cegterg      :   1633.89s CPU   1642.72s WALL (     900 calls)

     Called by sum_band:

     Called by *egterg:
     h_psi        :    937.34s CPU    943.08s WALL (    4623 calls)
     g_psi        :      5.94s CPU      5.96s WALL (    3687 calls)
     cdiaghg      :    300.43s CPU    300.84s WALL (    4587 calls)

     Called by h_psi:
     h_psi:pot    :    922.66s CPU    928.27s WALL (    4623 calls)
     h_psi:calbec :     94.22s CPU     94.93s WALL (    4623 calls)
     vloc_psi     :    735.56s CPU    740.26s WALL (    4623 calls)
     add_vuspsi   :     92.83s CPU     93.05s WALL (    4623 calls)

     General routines
     calbec       :     98.83s CPU     99.59s WALL (    4767 calls)
     fft          :      0.21s CPU      0.22s WALL (     105 calls)
     fftw         :    783.32s CPU    788.99s WALL (  983806 calls)
     davcio       :      0.00s CPU      1.99s WALL (      36 calls)
 
     Parallel routines
     fft_scatter  :    314.06s CPU    317.02s WALL (  983911 calls)
 
     PWSCF        : 30m14.06s CPU    30m27.95s WALL

 
   This run was terminated on:   0:30:59   7Jul2017            

=------------------------------------------------------------------------------=
   JOB DONE.
=------------------------------------------------------------------------------=
